# vtk DataFile Version 3.0
vtk output
ASCII
DATASET STRUCTURED_POINTS
DIMENSIONS 101 101 1
SPACING 0.1 0.1 0.1
ORIGIN -5 -5 0
POINT_DATA 10201
SCALARS image_data double
LOOKUP_TABLE default
3.5 3.3577 3.23802 3.13978 3.06186 3.00312 2.9625 2.9389 2.9313 
2.93866 2.96 2.99434 3.04074 3.09826 3.16602 3.24313 3.32874 3.42202 
3.52218 3.62842 3.74 3.85618 3.97626 4.09954 4.22538 4.35313 4.48218 
4.61194 4.74186 4.87138 5 5.12722 5.25258 5.37562 5.49594 5.61313 
5.72682 5.83666 5.94234 6.04354 6.14 6.23146 6.3177 6.3985 6.4737 
6.54312 6.60666 6.66418 6.71562 6.7609 6.8 6.8329 6.85962 6.88018 
6.89466 6.90313 6.9057 6.9025 6.8937 6.87946 6.86 6.83554 6.80634 
6.77266 6.73482 6.69313 6.64794 6.59962 6.54858 6.49522 6.44 6.38338 
6.32586 6.26794 6.21018 6.15313 6.09738 6.04354 5.99226 5.94418 5.9 
5.86042 5.82618 5.79802 5.77674 5.76312 5.75802 5.76226 5.77674 5.80234 
5.84 5.89066 5.9553 6.0349 6.1305 6.24313 6.37386 6.52378 6.69402 
6.8857 7.1 3.2705 3.12424 3.00064 2.89852 2.81676 2.75423 2.70984 
2.68252 2.67124 2.67496 2.6927 2.72348 2.76636 2.8204 2.88472 2.95843 
3.04068 3.13064 3.22752 3.33052 3.4389 3.55192 3.66888 3.78908 3.91188 
4.03663 4.16272 4.28956 4.4166 4.54328 4.6691 4.79356 4.9162 5.03656 
5.15424 5.26883 5.37996 5.48728 5.59048 5.68924 5.7833 5.8724 5.95632 
6.03484 6.1078 6.17503 6.2364 6.2918 6.34116 6.3844 6.4215 6.45244 
6.47724 6.49592 6.50856 6.51523 6.51604 6.51112 6.50064 6.48476 6.4637 
6.43768 6.40696 6.3718 6.33252 6.28943 6.24288 6.19324 6.14092 6.08632 
6.0299 5.97212 5.91348 5.85448 5.79568 5.73763 5.68092 5.62616 5.574 
5.52508 5.4801 5.43976 5.4048 5.37596 5.35404 5.33983 5.33416 5.33788 
5.35188 5.37704 5.4143 5.4646 5.52892 5.60824 5.7036 5.81603 5.9466 
6.0964 6.26656 6.4582 6.6725 3.06522 2.91504 2.78755 2.6816 2.59603 
2.52974 2.48163 2.45064 2.43571 2.43584 2.45002 2.47728 2.51667 2.56728 
2.62819 2.69854 2.77747 2.86416 2.95779 3.0576 3.16282 3.27272 3.38659 
3.50376 3.62355 3.74534 3.86851 3.99248 4.11667 4.24056 4.36362 4.48536 
4.60531 4.72304 4.83811 4.95014 5.05875 5.1636 5.26435 5.36072 5.45242 
5.5392 5.62083 5.69712 5.76787 5.83294 5.89219 5.94552 5.99283 6.03408 
6.06922 6.09824 6.12115 6.138 6.14883 6.15374 6.15283 6.14624 6.13411 
6.11664 6.09402 6.06648 6.03427 5.99768 5.95699 5.91254 5.86467 5.81376 
5.76019 5.7044 5.64682 5.58792 5.52819 5.46816 5.40835 5.34934 5.29171 
5.23608 5.18307 5.13336 5.08762 5.04656 5.01091 4.98144 4.95891 4.94414 
4.93795 4.9412 4.95475 4.97952 5.01642 5.0664 5.13043 5.20952 5.30467 
5.41694 5.54739 5.69712 5.86723 6.05888 6.27322 2.88298 2.72892 2.5976 
2.48784 2.39852 2.32851 2.27672 2.24208 2.22356 2.22012 2.23078 2.25456 
2.29052 2.33772 2.39528 2.46231 2.53796 2.6214 2.71184 2.80848 2.91058 
3.0174 3.12824 3.2424 3.35924 3.47811 3.5984 3.71952 3.84092 3.96204 
4.08238 4.20144 4.31876 4.43388 4.5464 4.65591 4.76204 4.86444 4.9628 
5.0568 5.14618 5.23068 5.31008 5.38416 5.45276 5.51571 5.57288 5.62416 
5.66948 5.70876 5.74198 5.76912 5.7902 5.80524 5.81432 5.81751 5.81492 
5.80668 5.79296 5.77392 5.74978 5.72076 5.68712 5.64912 5.60708 5.56131 
5.51216 5.46 5.40524 5.34828 5.28958 5.2296 5.16884 5.1078 5.04704 
4.98711 4.9286 4.87212 4.81832 4.76784 4.72138 4.67964 4.64336 4.61328 
4.5902 4.57491 4.56824 4.57104 4.5842 4.6086 4.64518 4.69488 4.75868 
4.83756 4.93256 5.04471 5.17508 5.32476 5.49488 5.68656 5.90098 2.72266 
2.56476 2.42963 2.31612 2.22307 2.14938 2.09395 2.05572 2.03363 2.02668 
2.03386 2.0542 2.08675 2.1306 2.18483 2.24858 2.32099 2.40124 2.48851 
2.58204 2.68106 2.78484 2.89267 3.00388 3.11779 3.23378 3.35123 3.46956 
3.58819 3.7066 3.82426 3.94068 4.05539 4.16796 4.27795 4.38498 4.48867 
4.58868 4.68467 4.77636 4.86346 4.94572 5.02291 5.09484 5.16131 5.22218 
5.27731 5.3266 5.36995 5.40732 5.43866 5.46396 5.48323 5.49652 5.50387 
5.50538 5.50115 5.49132 5.47603 5.45548 5.42986 5.3994 5.36435 5.325 
5.28163 5.23458 5.18419 5.13084 5.07491 5.01684 4.95706 4.89604 4.83427 
4.77228 4.71059 4.64978 4.59043 4.53316 4.47859 4.4274 4.38026 4.33788 
4.30099 4.27036 4.24675 4.23098 4.22387 4.22628 4.23907 4.26316 4.29946 
4.34892 4.41251 4.49124 4.58611 4.69818 4.82851 4.9782 5.14835 5.34012 
5.55466 2.58312 2.42143 2.28254 2.16531 2.06858 1.99125 1.93222 1.89043 
1.86482 1.85439 1.85813 1.87507 1.90426 1.94479 1.99574 2.05625 2.12546 
2.20255 2.2867 2.37715 2.47313 2.57391 2.67878 2.78707 2.8981 3.01125 
3.1259 3.24147 3.35738 3.47311 3.58812 3.70195 3.8141 3.92415 4.03166 
4.13625 4.23754 4.33519 4.42886 4.51827 4.60313 4.68319 4.75822 4.82803 
4.89242 4.95125 5.00438 5.05171 5.09314 5.12863 5.15813 5.18163 5.19914 
5.21071 5.21638 5.21625 5.21042 5.19903 5.18222 5.16019 5.13312 5.10127 
5.06486 5.02419 4.97954 4.93125 4.87966 4.82515 4.7681 4.70895 4.64813 
4.58611 4.52338 4.46047 4.3979 4.33625 4.2761 4.21807 4.16278 4.11091 
4.06312 4.02015 3.9827 3.95155 3.92746 3.91125 3.90374 3.90579 3.91826 
3.94207 3.97812 4.02739 4.09082 4.16943 4.26422 4.37625 4.50658 4.65631 
4.82654 5.01843 5.23313 2.4633 2.29784 2.15523 2.03432 1.93395 1.85302 
1.79043 1.74512 1.71603 1.70216 1.7025 1.71608 1.74195 1.7792 1.82691 
1.88422 1.95027 2.02424 2.10531 2.19272 2.2857 2.38352 2.48547 2.59088 
2.69907 2.80942 2.92131 3.03416 3.14739 3.26048 3.3729 3.48416 3.59379 
3.70136 3.80643 3.90862 4.00755 4.10288 4.19427 4.28144 4.3641 4.442 
4.51491 4.58264 4.64499 4.70182 4.75299 4.7984 4.83795 4.8716 4.8993 
4.92104 4.93683 4.94672 4.95075 4.94902 4.94163 4.92872 4.91043 4.88696 
4.8585 4.82528 4.78755 4.7456 4.69971 4.65022 4.59747 4.54184 4.48371 
4.42352 4.3617 4.29872 4.23507 4.17128 4.10787 4.04542 3.98451 3.92576 
3.86979 3.81728 3.7689 3.72536 3.68739 3.65576 3.63123 3.61462 3.60675 
3.60848 3.62067 3.64424 3.6801 3.7292 3.79251 3.87104 3.96579 4.07782 
4.20819 4.358 4.52835 4.7204 4.9353 2.3621 2.19292 2.04664 1.92208 
1.81812 1.73363 1.66752 1.61872 1.5862 1.56892 1.5659 1.57616 1.59876 
1.63276 1.67728 1.73143 1.79436 1.86524 1.94328 2.02768 2.1177 2.2126 
2.31168 2.41424 2.51964 2.62723 2.7364 2.84656 2.95716 3.06764 3.1775 
3.28624 3.3934 3.49852 3.6012 3.70103 3.79764 3.89068 3.97984 4.0648 
4.1453 4.22108 4.29192 4.3576 4.41796 4.47283 4.52208 4.5656 4.60332 
4.63516 4.6611 4.68112 4.69524 4.70348 4.70592 4.70263 4.69372 4.67932 
4.6596 4.63472 4.6049 4.57036 4.53136 4.48816 4.44108 4.39043 4.33656 
4.27984 4.22068 4.15948 4.0967 4.0328 3.96828 3.90364 3.83944 3.77623 
3.7146 3.65516 3.59856 3.54544 3.4965 3.45244 3.414 3.38192 3.357 
3.34003 3.33184 3.33328 3.34524 3.3686 3.4043 3.45328 3.51652 3.595 
3.68976 3.80183 3.93228 4.0822 4.25272 4.44496 4.6601 2.2785 2.10564 
1.95571 1.82756 1.72003 1.63202 1.56243 1.5102 1.47427 1.45364 1.4473 
1.45428 1.47363 1.50444 1.54579 1.59682 1.65667 1.72452 1.79955 1.881 
1.9681 2.06012 2.15635 2.25612 2.35875 2.46362 2.57011 2.67764 2.78563 
2.89356 3.0009 3.10716 3.21187 3.3146 3.41491 3.51242 3.60675 3.69756 
3.78451 3.86732 3.9457 4.0194 4.08819 4.15188 4.21027 4.26322 4.31059 
4.35228 4.38819 4.41828 4.4425 4.46084 4.47331 4.47996 4.48083 4.47602 
4.46563 4.4498 4.42867 4.40244 4.3713 4.33548 4.29523 4.25084 4.20259 
4.15082 4.09587 4.03812 3.97795 3.9158 3.8521 3.78732 3.72195 3.65652 
3.59155 3.52762 3.46531 3.40524 3.34803 3.29436 3.2449 3.20036 3.16147 
3.129 3.10371 3.08642 3.07795 3.07916 3.09091 3.11412 3.1497 3.1986 
3.26179 3.34028 3.43507 3.54722 3.67779 3.82788 3.99859 4.19108 4.4065 
2.21146 2.03496 1.88144 1.74972 1.63868 1.54719 1.47416 1.41852 1.37924 
1.35528 1.34566 1.3494 1.36556 1.3932 1.43144 1.47939 1.5362 1.60104 
1.67312 1.75164 1.83586 1.92504 2.01848 2.11548 2.2154 2.31759 2.42144 
2.52636 2.6318 2.7372 2.84206 2.94588 3.0482 3.14856 3.24656 3.34179 
3.43388 3.52248 3.60728 3.68796 3.76426 3.83592 3.90272 3.96444 4.02092 
4.07199 4.11752 4.1574 4.19156 4.21992 4.24246 4.25916 4.27004 4.27512 
4.27448 4.26819 4.25636 4.23912 4.21664 4.18908 4.15666 4.1196 4.07816 
4.0326 3.98324 3.93039 3.8744 3.81564 3.75452 3.69144 3.62686 3.56124 
3.49508 3.42888 3.3632 3.29859 3.23564 3.17496 3.1172 3.063 3.01306 
2.96808 2.9288 2.89596 2.87036 2.85279 2.84408 2.84508 2.85668 2.87976 
2.91526 2.96412 3.02732 3.10584 3.20072 3.31299 3.44372 3.594 3.76496 
3.95772 4.17346 2.16 1.9799 1.82282 1.68758 1.57306 1.47812 1.4017 
1.3427 1.3001 1.27286 1.26 1.26054 1.27354 1.29806 1.33322 1.37813 
1.43194 1.49382 1.56298 1.63862 1.72 1.80638 1.89706 1.99134 2.08858 
2.18813 2.28938 2.39174 2.49466 2.59758 2.7 2.80142 2.90138 2.99942 
3.09514 3.18812 3.27802 3.36446 3.44714 3.52574 3.6 3.66966 3.7345 
3.7943 3.8489 3.89812 3.94186 3.97998 4.01242 4.0391 4.06 4.0751 
4.08442 4.08798 4.08586 4.07812 4.0649 4.0463 4.0225 3.99366 3.96 
3.92174 3.87914 3.83246 3.78202 3.72812 3.67114 3.61142 3.54938 3.48542 
3.42 3.35358 3.28666 3.21974 3.15338 3.08812 3.02458 2.96334 2.90506 
2.85038 2.8 2.75462 2.71498 2.68182 2.65594 2.63813 2.62922 2.63006 
2.64154 2.66454 2.7 2.74886 2.8121 2.8907 2.9857 3.09813 3.22906 
3.37958 3.55082 3.7439 3.96 2.12314 1.93948 1.77888 1.64016 1.5222 
1.42387 1.34408 1.28176 1.23588 1.2054 1.18934 1.18672 1.1966 1.21804 
1.25016 1.29207 1.34292 1.40188 1.46816 1.54096 1.61954 1.70316 1.79112 
1.88272 1.97732 2.07427 2.17296 2.2728 2.37324 2.47372 2.57374 2.6728 
2.77044 2.8662 2.95968 3.05047 3.1382 3.22252 3.30312 3.37968 3.45194 
3.51964 3.58256 3.64048 3.69324 3.74067 3.78264 3.81904 3.8498 3.87484 
3.89414 3.90768 3.91548 3.91756 3.914 3.90487 3.89028 3.87036 3.84528 
3.8152 3.78034 3.74092 3.6972 3.64944 3.59796 3.54307 3.48512 3.42448 
3.36156 3.29676 3.23054 3.16336 3.09572 3.02812 2.96112 2.89527 2.83116 
2.7694 2.71064 2.65552 2.60474 2.559 2.51904 2.4856 2.45948 2.44147 
2.4324 2.43312 2.44452 2.46748 2.50294 2.55184 2.61516 2.69388 2.78904 
2.90167 3.03284 3.18364 3.3552 3.54864 3.76514 2.09994 1.91276 1.74867 
1.60652 1.48515 1.38346 1.30035 1.23476 1.18563 1.15196 1.13274 1.127 
1.13379 1.1522 1.18131 1.22026 1.26819 1.32428 1.38771 1.45772 1.53354 
1.61444 1.69971 1.78868 1.88067 1.97506 2.07123 2.1686 2.26659 2.36468 
2.46234 2.55908 2.65443 2.74796 2.83923 2.92786 3.01347 3.09572 3.17427 
3.24884 3.31914 3.38492 3.44595 3.50204 3.55299 3.59866 3.63891 3.67364 
3.70275 3.7262 3.74394 3.75596 3.76227 3.76292 3.75795 3.74746 3.73155 
3.71036 3.68403 3.65276 3.61674 3.5762 3.53139 3.4826 3.43011 3.37426 
3.31539 3.25388 3.19011 3.12452 3.05754 2.98964 2.92131 2.85308 2.78547 
2.71906 2.65443 2.5922 2.53299 2.47748 2.42634 2.38028 2.34003 2.30636 
2.28003 2.26186 2.25267 2.25332 2.26467 2.28764 2.32314 2.37212 2.43555 
2.51444 2.60979 2.72266 2.85411 3.00524 3.17715 3.371 3.58794 2.08946 
1.8988 1.73128 1.58572 1.461 1.35599 1.2696 1.20076 1.14844 1.1116 
1.08926 1.08044 1.0842 1.0996 1.12576 1.16179 1.20684 1.26008 1.32072 
1.38796 1.46106 1.53928 1.62192 1.70828 1.79772 1.88959 1.98328 2.0782 
2.1738 2.26952 2.36486 2.45932 2.55244 2.64376 2.73288 2.81939 2.90292 
2.98312 3.05968 3.13228 3.20066 3.26456 3.32376 3.37804 3.42724 3.47119 
3.50976 3.54284 3.57036 3.59224 3.60846 3.619 3.62388 3.62312 3.6168 
3.60499 3.5878 3.56536 3.53784 3.5054 3.46826 3.42664 3.3808 3.331 
3.27756 3.22079 3.16104 3.09868 3.03412 2.96776 2.90006 2.83148 2.76252 
2.69368 2.62552 2.55859 2.49348 2.4308 2.3712 2.31532 2.26386 2.21752 
2.17704 2.14316 2.11668 2.09839 2.08912 2.08972 2.10108 2.12408 2.15966 
2.20876 2.27236 2.35144 2.44704 2.56019 2.69196 2.84344 3.01576 3.21004 
3.42746 2.09082 1.89672 1.72579 1.57688 1.44883 1.34054 1.25091 1.17888 
1.12339 1.08344 1.05802 1.04616 1.04691 1.05936 1.08259 1.11574 1.15795 
1.2084 1.26627 1.3308 1.40122 1.4768 1.55683 1.64064 1.72755 1.81694 
1.90819 2.00072 2.09395 2.18736 2.28042 2.37264 2.46355 2.55272 2.63971 
2.72414 2.80563 2.88384 2.95843 3.02912 3.09562 3.15768 3.21507 3.2676 
3.31507 3.35734 3.39427 3.42576 3.45171 3.47208 3.48682 3.49592 3.49939 
3.49728 3.48963 3.47654 3.45811 3.43448 3.40579 3.37224 3.33402 3.29136 
3.24451 3.19376 3.13939 3.08174 3.02115 2.958 2.89267 2.8256 2.75722 
2.688 2.61843 2.54904 2.48035 2.41294 2.34739 2.28432 2.22435 2.16816 
2.11642 2.06984 2.02915 1.99512 1.96851 1.95014 1.94083 1.94144 1.95283 
1.97592 2.01162 2.06088 2.12467 2.204 2.29987 2.41334 2.54547 2.69736 
2.87011 3.06488 3.28282 2.10312 1.90563 1.73134 1.57911 1.44778 1.33625 
1.24342 1.16823 1.10962 1.06659 1.03812 1.02327 1.02106 1.03059 1.05094 
1.08125 1.12066 1.16835 1.2235 1.28535 1.35312 1.42611 1.50358 1.58487 
1.6693 1.75625 1.8451 1.93527 2.02618 2.11731 2.20812 2.29815 2.3869 
2.47395 2.55886 2.64125 2.72074 2.79699 2.86966 2.93847 3.00312 3.06339 
3.11902 3.16983 3.21562 3.25625 3.29158 3.32151 3.34594 3.36483 3.37812 
3.38583 3.38794 3.38451 3.37558 3.36125 3.34162 3.31683 3.28702 3.25239 
3.21312 3.16947 3.12166 3.06999 3.01474 2.95625 2.89486 2.83095 2.7649 
2.69715 2.62812 2.55831 2.48818 2.41827 2.3491 2.28125 2.2153 2.15187 
2.09158 2.03511 1.98313 1.93635 1.8955 1.86135 1.83466 1.81625 1.80694 
1.80759 1.81906 1.84227 1.87813 1.92759 1.99162 2.07123 2.16742 2.28125 
2.41378 2.56611 2.73934 2.93463 3.15313 2.12554 1.92468 1.74707 1.59156 
1.45699 1.34226 1.24627 1.16796 1.10627 1.0602 1.02874 1.01092 1.00579 
1.01244 1.02995 1.05746 1.09411 1.13908 1.19155 1.25076 1.31594 1.38636 
1.46131 1.54012 1.62211 1.70666 1.79315 1.881 1.96963 2.05852 2.14714 
2.235 2.32163 2.4066 2.48947 2.56986 2.64739 2.72172 2.79251 2.85948 
2.92234 2.98084 3.03475 3.08388 3.12803 3.16706 3.20083 3.22924 3.25219 
3.26964 3.28154 3.28788 3.28867 3.28396 3.27379 3.25826 3.23747 3.21156 
3.18067 3.145 3.10474 3.06012 3.01139 2.95884 2.90275 2.84346 2.78131 
2.71668 2.64995 2.58156 2.51194 2.44156 2.37091 2.30052 2.23091 2.16266 
2.09635 2.0326 1.97203 1.91532 1.86314 1.8162 1.77523 1.741 1.71427 
1.69586 1.68659 1.68732 1.69891 1.72228 1.75834 1.80804 1.87235 1.95228 
2.04883 2.16306 2.29603 2.44884 2.62259 2.81844 3.03754 2.15722 1.95304 
1.77216 1.6134 1.47564 1.35775 1.25864 1.17724 1.11252 1.06344 1.02902 
1.00828 1.00028 1.00408 1.0188 1.04355 1.07748 1.11976 1.1696 1.2262 
1.28882 1.35672 1.4292 1.50556 1.58516 1.66735 1.75152 1.83708 1.92348 
2.01016 2.09662 2.18236 2.26692 2.34984 2.43072 2.50915 2.58476 2.6572 
2.72616 2.79132 2.85242 2.9092 2.96144 3.00892 3.05148 3.08895 3.1212 
3.14812 3.16964 3.18568 3.19622 3.20124 3.20076 3.1948 3.18344 3.16675 
3.14484 3.11784 3.08592 3.04924 3.00802 2.96248 2.91288 2.85948 2.8026 
2.74255 2.67968 2.61436 2.547 2.478 2.40782 2.33692 2.2658 2.19496 
2.12496 2.05635 1.98972 1.92568 1.86488 1.80796 1.75562 1.70856 1.66752 
1.63324 1.60652 1.58815 1.57896 1.5798 1.59156 1.61512 1.65142 1.7014 
1.76604 1.84632 1.94328 2.05795 2.1914 2.34472 2.51904 2.71548 2.93522 
2.19738 1.98992 1.80579 1.64384 1.50291 1.3819 1.27971 1.19528 1.12755 
1.07552 1.03818 1.01456 1.00371 1.00472 1.01667 1.0387 1.06995 1.1096 
1.15683 1.21088 1.27098 1.3364 1.40643 1.4804 1.55763 1.6375 1.71939 
1.80272 1.88691 1.97144 2.05578 2.13944 2.22195 2.30288 2.38179 2.4583 
2.53203 2.60264 2.66979 2.7332 2.79258 2.84768 2.89827 2.94416 2.98515 
3.0211 3.05187 3.07736 3.09747 3.11216 3.12138 3.12512 3.12339 3.11624 
3.10371 3.0859 3.06291 3.03488 3.00195 2.96432 2.92218 2.87576 2.82531 
2.77112 2.71347 2.6527 2.58915 2.5232 2.45523 2.38568 2.31498 2.2436 
2.17203 2.1008 2.03043 1.9615 1.89459 1.83032 1.76931 1.71224 1.65978 
1.61264 1.57155 1.53728 1.51059 1.4923 1.48323 1.48424 1.49619 1.52 
1.55658 1.60688 1.67187 1.75256 1.84995 1.9651 2.09907 2.25296 2.42787 
2.62496 2.84538 2.24522 2.03452 1.8472 1.68208 1.53804 1.41395 1.30872 
1.22128 1.1506 1.09564 1.05542 1.02896 1.01532 1.01356 1.0228 1.04215 
1.07076 1.1078 1.15248 1.204 1.26162 1.3246 1.39224 1.46384 1.53876 
1.61635 1.696 1.77712 1.85916 1.94156 2.02382 2.10544 2.18596 2.26492 
2.34192 2.41655 2.48844 2.55724 2.62264 2.68432 2.74202 2.79548 2.84448 
2.8888 2.92828 2.96275 2.99208 3.01616 3.03492 3.04828 3.05622 3.05872 
3.0558 3.04748 3.03384 3.01495 2.99092 2.96188 2.928 2.88944 2.84642 
2.79916 2.74792 2.69296 2.6346 2.57315 2.50896 2.4424 2.37388 2.3038 
2.23262 2.1608 2.08884 2.01724 1.94656 1.87735 1.8102 1.74572 1.68456 
1.62736 1.57482 1.52764 1.48656 1.45232 1.42572 1.40755 1.39864 1.39984 
1.41204 1.43612 1.47302 1.52368 1.58908 1.6702 1.76808 1.88375 2.01828 
2.17276 2.34832 2.54608 2.76722 2.3 2.0861 1.89562 1.72738 1.58026 
1.45312 1.3449 1.2545 1.1809 1.12306 1.08 1.05074 1.03434 1.02986 
1.03642 1.05313 1.07914 1.11362 1.15578 1.20482 1.26 1.32058 1.38586 
1.45514 1.52778 1.60312 1.68058 1.75954 1.83946 1.91978 2 2.07962 
2.15818 2.23522 2.31034 2.38312 2.45322 2.52026 2.58394 2.64394 2.7 
2.75186 2.7993 2.8421 2.8801 2.91312 2.94106 2.96378 2.98122 2.9933 
3 3.0013 2.99722 2.98778 2.97306 2.95312 2.9281 2.8981 2.8633 
2.82386 2.78 2.73194 2.67994 2.62426 2.56522 2.50312 2.43834 2.37122 
2.30218 2.23162 2.16 2.08778 2.01546 1.94354 1.87258 1.80313 1.73578 
1.67114 1.60986 1.55258 1.5 1.45282 1.41178 1.37762 1.35114 1.33312 
1.32442 1.32586 1.33834 1.36274 1.4 1.45106 1.5169 1.5985 1.6969 
1.81312 1.94826 2.10338 2.27962 2.4781 2.7 2.36098 2.14392 1.95032 
1.779 1.62884 1.49871 1.38752 1.2942 1.21772 1.15704 1.11118 1.07916 
1.06004 1.05288 1.0568 1.07091 1.09436 1.12632 1.166 1.2126 1.26538 
1.3236 1.38656 1.45356 1.52396 1.59711 1.6724 1.74924 1.82708 1.90536 
1.98358 2.06124 2.13788 2.21304 2.28632 2.35731 2.42564 2.49096 2.55296 
2.61132 2.66578 2.71608 2.762 2.80332 2.83988 2.87151 2.89808 2.91948 
2.93564 2.94648 2.95198 2.95212 2.94692 2.9364 2.92064 2.89971 2.87372 
2.8428 2.80712 2.76684 2.72218 2.67336 2.62064 2.56428 2.5046 2.44191 
2.37656 2.30892 2.2394 2.1684 2.09638 2.0238 1.95116 1.87896 1.80776 
1.73811 1.6706 1.60584 1.54448 1.48716 1.43458 1.38744 1.34648 1.31244 
1.28612 1.26831 1.25984 1.26156 1.27436 1.29912 1.33678 1.38828 1.4546 
1.53672 1.63568 1.75251 1.88828 2.04408 2.22104 2.42028 2.64298 2.42746 
2.20728 2.01059 1.83624 1.68307 1.54998 1.43587 1.33968 1.26035 1.19688 
1.14826 1.11352 1.09171 1.08192 1.08323 1.09478 1.11571 1.1452 1.18243 
1.22664 1.27706 1.33296 1.39363 1.4584 1.52659 1.59758 1.67075 1.74552 
1.82131 1.8976 1.97386 2.0496 2.12435 2.19768 2.26915 2.33838 2.40499 
2.46864 2.52899 2.58576 2.63866 2.68744 2.73187 2.77176 2.80691 2.83718 
2.86243 2.88256 2.89747 2.90712 2.91146 2.91048 2.90419 2.89264 2.87587 
2.85398 2.82707 2.79528 2.75875 2.71768 2.67226 2.62272 2.56931 2.51232 
2.45203 2.38878 2.32291 2.2548 2.18483 2.11344 2.04106 1.96816 1.89523 
1.8228 1.75139 1.68158 1.61395 1.54912 1.48771 1.4304 1.37786 1.3308 
1.28995 1.25608 1.22995 1.21238 1.20419 1.20624 1.21939 1.24456 1.28266 
1.33464 1.40147 1.48416 1.58371 1.70118 1.83763 1.99416 2.17187 2.37192 
2.59546 2.49874 2.27548 2.07576 1.8984 1.74228 1.60627 1.48928 1.39024 
1.30812 1.24188 1.19054 1.15312 1.12868 1.11628 1.11504 1.12407 1.14252 
1.16956 1.2044 1.24624 1.29434 1.34796 1.4064 1.46896 1.535 1.60387 
1.67496 1.74768 1.82148 1.8958 1.97014 2.044 2.11692 2.18844 2.25816 
2.32567 2.3906 2.4526 2.51136 2.56656 2.61794 2.66524 2.70824 2.74672 
2.78052 2.80947 2.83344 2.85232 2.86604 2.87452 2.87774 2.87568 2.86836 
2.8558 2.83808 2.81527 2.78748 2.75484 2.71752 2.67568 2.62954 2.57932 
2.52528 2.46768 2.40684 2.34307 2.27672 2.20816 2.1378 2.06604 1.99334 
1.92016 1.847 1.77436 1.7028 1.63287 1.56516 1.50028 1.43888 1.3816 
1.32914 1.2822 1.24152 1.20784 1.18196 1.16467 1.1568 1.1592 1.17276 
1.19836 1.23694 1.28944 1.35684 1.44012 1.54032 1.65847 1.79564 1.95292 
2.13144 2.33232 2.55674 2.57418 2.34788 2.14515 1.96484 1.80579 1.6669 
1.54707 1.44524 1.36035 1.2914 1.23738 1.19732 1.17027 1.15532 1.15155 
1.1581 1.17411 1.19876 1.23123 1.27076 1.31658 1.36796 1.42419 1.4846 
1.54851 1.6153 1.68435 1.75508 1.82691 1.89932 1.97178 2.0438 2.11491 
2.18468 2.25267 2.3185 2.38179 2.4422 2.49939 2.55308 2.60298 2.64884 
2.69043 2.72756 2.76003 2.7877 2.81043 2.82812 2.84067 2.84804 2.85018 
2.84708 2.83875 2.82524 2.80659 2.7829 2.75427 2.72084 2.68275 2.6402 
2.59338 2.54252 2.48787 2.42972 2.36835 2.3041 2.23731 2.16836 2.09763 
2.02556 1.95258 1.87916 1.80579 1.733 1.66131 1.5913 1.52355 1.45868 
1.39731 1.34012 1.28778 1.241 1.20051 1.16708 1.14147 1.1245 1.11699 
1.1198 1.13379 1.15988 1.19898 1.25204 1.32003 1.40396 1.50483 1.6237 
1.76163 1.91972 2.09907 2.30084 2.52618 2.65313 2.42383 2.21814 2.03491 
1.87298 1.73125 1.60862 1.50403 1.41642 1.34479 1.28812 1.24547 1.21586 
1.19839 1.19214 1.19625 1.20986 1.23215 1.2623 1.29955 1.34313 1.39231 
1.44638 1.50467 1.5665 1.63125 1.6983 1.76707 1.83698 1.90751 1.97812 
2.04835 2.1177 2.18575 2.25206 2.31625 2.37794 2.43679 2.49246 2.54467 
2.59312 2.63759 2.67782 2.71363 2.74482 2.77125 2.79278 2.80931 2.82074 
2.82703 2.82812 2.82403 2.81474 2.80031 2.78078 2.75625 2.72682 2.69263 
2.65382 2.61059 2.56313 2.51167 2.45646 2.39779 2.33594 2.27125 2.20406 
2.13475 2.0637 1.99135 1.91812 1.84451 1.77098 1.69807 1.6263 1.55625 
1.4885 1.42367 1.36238 1.30531 1.25313 1.20655 1.1663 1.13315 1.10786 
1.09125 1.08414 1.08739 1.10186 1.12847 1.16813 1.22179 1.29042 1.37503 
1.47662 1.59625 1.73498 1.89391 2.07414 2.27683 2.50312 2.73498 2.50272 
2.29411 2.108 1.94323 1.7987 1.67331 1.566 1.47571 1.40144 1.34218 
1.29696 1.26483 1.24488 1.23619 1.2379 1.24915 1.26912 1.29699 1.332 
1.37338 1.4204 1.47235 1.52856 1.58835 1.6511 1.71619 1.78304 1.85107 
1.91976 1.98858 2.05704 2.12467 2.19104 2.25571 2.3183 2.37843 2.43576 
2.48995 2.54072 2.58778 2.63088 2.66979 2.70432 2.73427 2.7595 2.77987 
2.79528 2.80563 2.81088 2.81098 2.80592 2.79571 2.7804 2.76003 2.7347 
2.70451 2.6696 2.63011 2.58624 2.53818 2.48616 2.43043 2.37128 2.30899 
2.2439 2.17635 2.10672 2.03539 1.9628 1.88938 1.8156 1.74195 1.66896 
1.59715 1.5271 1.45939 1.39464 1.33347 1.27656 1.22458 1.17824 1.13827 
1.10544 1.08051 1.0643 1.05763 1.06136 1.07635 1.10352 1.14378 1.19808 
1.26739 1.35272 1.45507 1.5755 1.71507 1.87488 2.05603 2.25968 2.48698 
2.81914 2.58396 2.37248 2.18352 2.01596 1.86867 1.74056 1.63056 1.53764 
1.46076 1.39894 1.3512 1.3166 1.2942 1.28312 1.28247 1.2914 1.30908 
1.33472 1.36752 1.40674 1.45164 1.50152 1.55568 1.61348 1.67427 1.73744 
1.8024 1.8686 1.93548 2.00254 2.06928 2.13524 2.19996 2.26304 2.32407 
2.38268 2.43852 2.49128 2.54064 2.58634 2.62812 2.66576 2.69904 2.7278 
2.75187 2.77112 2.78544 2.79476 2.799 2.79814 2.79216 2.78108 2.76492 
2.74376 2.71767 2.68676 2.65116 2.61104 2.56656 2.51794 2.4654 2.4092 
2.3496 2.28692 2.22147 2.1536 2.08368 2.01212 1.93932 1.86574 1.79184 
1.71812 1.64508 1.57328 1.50327 1.43564 1.371 1.31 1.25328 1.20154 
1.15548 1.11584 1.08336 1.05884 1.04307 1.03688 1.04112 1.05668 1.08444 
1.12534 1.18032 1.25036 1.33644 1.4396 1.56087 1.70132 1.86204 2.04416 
2.2488 2.47714 2.90506 2.667 2.45267 2.26092 2.09059 1.94058 1.80979 
1.69716 1.60163 1.5222 1.45786 1.40764 1.37059 1.3458 1.33235 1.32938 
1.33603 1.35148 1.37491 1.40556 1.44266 1.48548 1.53331 1.58548 1.64131 
1.70018 1.76147 1.8246 1.88899 1.95412 2.01946 2.08452 2.14883 2.21196 
2.27347 2.33298 2.39011 2.44452 2.49587 2.54388 2.58826 2.62876 2.66515 
2.69724 2.72483 2.74778 2.76595 2.77924 2.78755 2.79084 2.78906 2.7822 
2.77027 2.75332 2.73139 2.70458 2.67299 2.63676 2.59603 2.551 2.50186 
2.44884 2.39219 2.3322 2.26915 2.20338 2.13523 2.06508 1.99331 1.92036 
1.84666 1.77268 1.69891 1.62588 1.55411 1.48418 1.41667 1.3522 1.29139 
1.23492 1.18346 1.13772 1.09843 1.06636 1.04227 1.02698 1.02131 1.02612 
1.04227 1.07068 1.11226 1.16796 1.23875 1.32564 1.42963 1.55178 1.69315 
1.85484 2.03795 2.24364 2.47306 2.99218 2.75128 2.53416 2.33964 2.1666 
2.01391 1.88048 1.76524 1.66716 1.5852 1.51838 1.46572 1.42628 1.39912 
1.38336 1.37811 1.38252 1.39576 1.41704 1.44556 1.48058 1.52136 1.5672 
1.6174 1.67132 1.72831 1.78776 1.84908 1.91172 1.97512 2.03878 2.1022 
2.16492 2.22648 2.28648 2.34451 2.4002 2.4532 2.5032 2.54988 2.59298 
2.63224 2.66744 2.69836 2.72484 2.74671 2.76384 2.77612 2.78348 2.78584 
2.78318 2.77548 2.76276 2.74504 2.7224 2.69491 2.66268 2.62584 2.58456 
2.539 2.48938 2.43592 2.37888 2.31852 2.25516 2.18911 2.12072 2.05036 
1.97844 1.90536 1.83158 1.75756 1.6838 1.6108 1.53912 1.46931 1.40196 
1.33768 1.27712 1.22092 1.16978 1.1244 1.08552 1.05388 1.03028 1.01551 
1.0104 1.0158 1.0326 1.06168 1.10398 1.16044 1.23204 1.31976 1.42464 
1.54771 1.69004 1.85272 2.03688 2.24364 2.47418 3.08 2.8363 2.61642 
2.41918 2.24346 2.08812 1.9521 1.8343 1.7337 1.64926 1.58 1.52494 
1.48314 1.45366 1.43562 1.42813 1.43034 1.44142 1.46058 1.48702 1.52 
1.55878 1.60266 1.65094 1.70298 1.75813 1.81578 1.87534 1.93626 1.99798 
2.06 2.12182 2.18298 2.24302 2.30154 2.35813 2.41242 2.46406 2.51274 
2.55814 2.6 2.63806 2.6721 2.7019 2.7273 2.74812 2.76426 2.77558 
2.78202 2.7835 2.78 2.7715 2.75802 2.73958 2.71626 2.68813 2.6553 
2.6179 2.5761 2.53006 2.48 2.42614 2.36874 2.30806 2.24442 2.17813 
2.10954 2.03902 1.96698 1.89382 1.82 1.74598 1.67226 1.59934 1.52778 
1.45812 1.39098 1.32694 1.26666 1.21078 1.16 1.11502 1.07658 1.04542 
1.02234 1.00812 1.00362 1.00966 1.02714 1.05694 1.1 1.15726 1.2297 
1.3183 1.4241 1.54812 1.69146 1.85518 2.04042 2.2483 2.48 3.16802 
2.92156 2.69896 2.49904 2.32068 2.16275 2.02416 1.90384 1.80076 1.71388 
1.64222 1.5848 1.54068 1.50892 1.48864 1.47895 1.479 1.48796 1.50504 
1.52944 1.56042 1.59724 1.6392 1.6856 1.7358 1.78915 1.84504 1.90288 
1.96212 2.0222 2.08262 2.14288 2.20252 2.26108 2.31816 2.37335 2.42628 
2.4766 2.524 2.56816 2.60882 2.64572 2.67864 2.70736 2.73172 2.75155 
2.76672 2.77712 2.78268 2.78332 2.77902 2.76976 2.75556 2.73644 2.71248 
2.68375 2.65036 2.61244 2.57016 2.52368 2.47322 2.419 2.36128 2.30032 
2.23644 2.16995 2.1012 2.03056 1.95844 1.88524 1.81142 1.73744 1.6638 
1.591 1.5196 1.45015 1.38324 1.31948 1.25952 1.204 1.15362 1.10908 
1.07112 1.04048 1.01796 1.00435 1.00048 1.0072 1.0254 1.05596 1.09982 
1.15792 1.23124 1.32076 1.42752 1.55255 1.69692 1.86172 2.04808 2.25712 
2.49002 3.25578 3.0066 2.78131 2.57876 2.39779 2.2373 2.09619 1.9734 
1.86787 1.7786 1.70458 1.64484 1.59843 1.56444 1.54195 1.5301 1.52803 
1.53492 1.54995 1.57236 1.60138 1.63628 1.67635 1.72092 1.76931 1.8209 
1.87507 1.93124 1.98883 2.04732 2.10618 2.16492 2.22307 2.2802 2.33587 
2.3897 2.44131 2.49036 2.53651 2.57948 2.61898 2.65476 2.68659 2.71428 
2.73763 2.7565 2.77075 2.78028 2.78499 2.78484 2.77978 2.7698 2.75491 
2.73516 2.71059 2.6813 2.64739 2.609 2.56627 2.5194 2.46858 2.41404 
2.35603 2.29484 2.23075 2.1641 2.09523 2.02452 1.95235 1.87916 1.80538 
1.73148 1.65795 1.58532 1.51411 1.4449 1.37827 1.31484 1.25523 1.20012 
1.15018 1.10612 1.06867 1.0386 1.01667 1.0037 1.00051 1.00796 1.02691 
1.05828 1.10298 1.16196 1.23619 1.32668 1.43443 1.5605 1.70595 1.87188 
2.05939 2.26964 2.50378 3.34282 3.09096 2.86304 2.65788 2.47436 2.31135 
2.16776 2.04252 1.9346 1.84296 1.76662 1.7046 1.65596 1.61976 1.59512 
1.58115 1.577 1.58184 1.59488 1.61532 1.64242 1.67544 1.71368 1.75644 
1.80308 1.85295 1.90544 1.95996 2.01596 2.07288 2.13022 2.18748 2.2442 
2.29992 2.35424 2.40675 2.45708 2.50488 2.54984 2.59164 2.63002 2.66472 
2.69552 2.7222 2.7446 2.76255 2.77592 2.7846 2.78852 2.7876 2.78182 
2.77116 2.75564 2.73528 2.71016 2.68035 2.64596 2.60712 2.564 2.51676 
2.46562 2.4108 2.35256 2.29116 2.22692 2.16015 2.0912 2.02044 1.94828 
1.87512 1.80142 1.72764 1.65428 1.58184 1.51088 1.44195 1.37564 1.31256 
1.25336 1.19868 1.14922 1.10568 1.0688 1.03932 1.01804 1.00575 1.00328 
1.01148 1.03124 1.06344 1.10902 1.16892 1.24412 1.3356 1.4444 1.57155 
1.71812 1.8852 2.07392 2.2854 2.52082 3.42874 3.17424 2.94371 2.736 
2.54995 2.38446 2.23843 2.1108 2.00051 1.90656 1.82794 1.76368 1.71283 
1.67448 1.64771 1.63166 1.62547 1.62832 1.63939 1.65792 1.68314 1.71432 
1.75075 1.79176 1.83667 1.88486 1.93571 1.98864 2.04307 2.09848 2.15434 
2.21016 2.26547 2.31984 2.37283 2.42406 2.47315 2.51976 2.56355 2.60424 
2.64154 2.6752 2.70499 2.73072 2.75219 2.76926 2.78179 2.78968 2.79283 
2.7912 2.78474 2.77344 2.75731 2.7364 2.71075 2.68046 2.64563 2.6064 
2.56291 2.51536 2.46394 2.40888 2.35043 2.28888 2.22451 2.15766 2.08867 
2.01792 1.94579 1.87272 1.79914 1.72552 1.65235 1.58016 1.50947 1.44086 
1.37491 1.31224 1.25347 1.19928 1.15034 1.10736 1.07107 1.04224 1.02163 
1.01006 1.00835 1.01736 1.03795 1.07104 1.11754 1.1784 1.25459 1.34712 
1.45699 1.58526 1.73299 1.90128 2.09123 2.304 2.54074 3.51313 3.25603 
3.02294 2.81271 2.62418 2.45625 2.30782 2.17783 2.06522 1.96899 1.88813 
1.82167 1.76866 1.72819 1.69934 1.68125 1.67306 1.67395 1.6831 1.69975 
1.72313 1.75251 1.78718 1.82647 1.8697 1.91625 1.9655 2.01687 2.06978 
2.12371 2.17813 2.23255 2.2865 2.33955 2.39126 2.44125 2.48914 2.53459 
2.57726 2.61687 2.65313 2.68579 2.71462 2.73943 2.76002 2.77625 2.78798 
2.79511 2.79754 2.79523 2.78812 2.77623 2.75954 2.73811 2.71198 2.68125 
2.64602 2.60643 2.56262 2.51479 2.46312 2.40787 2.34926 2.28759 2.22314 
2.15625 2.08726 2.01655 1.9445 1.87155 1.79812 1.72471 1.65178 1.57987 
1.5095 1.44125 1.3757 1.31347 1.25518 1.20151 1.15312 1.11075 1.0751 
1.04695 1.02706 1.01625 1.01534 1.02519 1.04666 1.08067 1.12813 1.18999 
1.26722 1.36083 1.47182 1.60125 1.75018 1.91971 2.11094 2.32503 2.56313 
3.59562 3.33596 3.10035 2.88764 2.69667 2.52634 2.37555 2.24324 2.12835 
2.02988 1.94682 1.8782 1.82307 1.78052 1.74963 1.72954 1.71939 1.71836 
1.72563 1.74044 1.76202 1.78964 1.82259 1.8602 1.90179 1.94674 1.99443 
2.04428 2.09571 2.1482 2.20122 2.25428 2.30691 2.35868 2.40915 2.45794 
2.50467 2.549 2.59059 2.62916 2.66442 2.69612 2.72403 2.74796 2.76771 
2.78314 2.79411 2.80052 2.80227 2.79932 2.79162 2.77916 2.76195 2.74004 
2.71347 2.68234 2.64675 2.60684 2.56275 2.51468 2.46282 2.4074 2.34867 
2.28692 2.22243 2.15554 2.08659 2.01596 1.94403 1.87124 1.79802 1.72484 
1.65219 1.5806 1.51059 1.44274 1.37763 1.31588 1.25811 1.205 1.15722 
1.11548 1.08051 1.05308 1.03395 1.02394 1.02387 1.0346 1.05699 1.09196 
1.14042 1.20332 1.28163 1.37636 1.48851 1.61914 1.76931 1.94012 2.13267 
2.34812 2.58762 3.67586 3.41368 3.1756 2.96044 2.76708 2.59439 2.44128 
2.30668 2.18956 2.08888 2.00366 1.93292 1.87572 1.83112 1.79824 1.77619 
1.76412 1.7612 1.76664 1.77964 1.79946 1.82536 1.85664 1.8926 1.9326 