# vtk DataFile Version 3.0
created by writeVTK (Matlab implementation by Erik Vidholm)
ASCII
DATASET STRUCTURED_POINTS
DIMENSIONS 101 101 1
ORIGIN -5.000000 -5.000000 0.000000
SPACING 0.1000000 0.1000000 0.1000000
POINT_DATA 10201
VECTORS gradient double
-1.4229899999999995 -2.294990000000001 0
-1.1968500000000004 -2.3345899999999986 0
-0.9823499999999985 -2.373789999999998 0
-0.7792500000000002 -2.412590000000001 0
-0.5873100000000031 -2.450990000000002 0
-0.40628999999999804 -2.4889899999999976 0
-0.23595000000000033 -2.5265899999999997 0
-7.605000000000084e-2 -2.563789999999999 0
7.365000000000066e-2 -2.600589999999998 0
0.21338999999999997 -2.636989999999999 0
0.34340999999999955 -2.6729899999999995 0
0.46394999999999964 -2.7085899999999996 0
0.5752500000000005 -2.7437899999999993 0
0.6775500000000001 -2.7785899999999986 0
0.7710900000000009 -2.8129899999999997 0
0.856110000000001 -2.8469900000000004 0
0.9328499999999984 -2.8805900000000007 0
1.00155 -2.9137900000000005 0
1.0624499999999992 -2.946589999999998 0
1.1157900000000032 -2.978989999999997 0
1.1618099999999965 -3.0109900000000023 0
1.2007499999999993 -3.0425900000000006 0
1.232850000000001 -3.0737899999999962 0
1.2583499999999992 -3.104589999999998 0
1.2774900000000011 -3.1349899999999975 0
1.2905100000000003 -3.1649899999999986 0
1.297649999999999 -3.1945900000000016 0
1.29915 -3.2237899999999975 0
1.2952500000000011 -3.2525899999999996 0
1.2861900000000004 -3.280989999999999 0
1.2722099999999958 -3.3089900000000005 0
1.2535500000000077 -3.336589999999995 0
1.230449999999994 -3.3637900000000043 0
1.2031500000000062 -3.3905899999999978 0
1.1718899999999977 -3.416990000000002 0
1.136910000000002 -3.4429900000000035 0
1.0984499999999997 -3.4685900000000025 0
1.0567499999999974 -3.493789999999999 0
1.0120500000000021 -3.5185900000000014 0
0.9645899999999941 -3.5429900000000014 0
0.9146100000000068 -3.5669899999999988 0
0.862349999999994 -3.5905900000000024 0
0.8080500000000068 -3.6137899999999945 0
0.751949999999999 -3.6365900000000018 0
0.6942899999999952 -3.6589900000000064 0
0.6353100000000023 -3.6809899999999995 0
0.5752500000000005 -3.702589999999999 0
0.5143499999999968 -3.7237900000000046 0
0.452849999999998 -3.7445899999999988 0
0.39099000000000217 -3.764989999999999 0
0.32900999999999847 -3.784989999999997 0
0.26715000000000266 -3.804590000000001 0
0.20565000000000389 -3.8237900000000025 0
0.14475000000000016 -3.8425900000000013 0
8.468999999999838e-2 -3.8609900000000064 0
2.570999999999657e-2 -3.87899 0
-3.194999999999837e-2 -3.8965899999999998 0
-8.80499999999973e-2 -3.913789999999997 0
-0.1423500000000022 -3.9305900000000005 0
-0.19460999999999729 -3.9469900000000013 0
-0.2445900000000023 -3.9629899999999996 0
-0.2920500000000015 -3.978590000000004 0
-0.3367499999999968 -3.993789999999997 0
-0.37844999999999906 -4.008590000000005 0
-0.41691000000000145 -4.022990000000002 0
-0.4518900000000059 -4.036990000000005 0
-0.48314999999999664 -4.050589999999996 0
-0.5104500000000023 -4.063790000000003 0
-0.5335499999999982 -4.076589999999998 0
-0.5522099999999952 -4.088989999999999 0
-0.5661900000000042 -4.100990000000007 0
-0.5752500000000005 -4.112590000000003 0
-0.579149999999995 -4.123789999999996 0
-0.5776500000000073 -4.134590000000005 0
-0.5705099999999952 -4.144989999999993 0
-0.5574900000000049 -4.154990000000005 0
-0.5383499999999941 -4.164589999999997 0
-0.5128500000000003 -4.173790000000004 0
-0.4807499999999987 -4.182589999999999 0
-0.44181000000000026 -4.190990000000001 0
-0.39579000000000697 -4.19899 0
-0.34244999999999415 -4.206589999999997 0
-0.2815499999999993 -4.2137899999999995 0
-0.21285000000000664 -4.22059 0
-0.1361100000000004 -4.226989999999997 0
-5.10900000000003e-2 -4.232989999999992 0
4.245000000000054e-2 -4.238589999999993 0
0.14475000000000016 -4.243790000000001 0
0.25605000000000544 -4.2485899999999965 0
0.37658999999999665 -4.252989999999999 0
0.5066099999999985 -4.256989999999998 0
0.64635 -4.260589999999995 0
0.7960499999999993 -4.263789999999998 0
0.9559500000000032 -4.266589999999999 0
1.126290000000001 -4.268989999999997 0
1.3073099999999993 -4.270990000000001 0
1.4992499999999964 -4.272590000000003 0
1.702350000000008 -4.273789999999993 0
1.9168499999999966 -4.274590000000007 0
2.1429899999999957 -4.274990000000001 0
2.1429899999999957 -4.274990000000001 0
-1.462589999999997 -2.0528499999999994 0
-1.2360499999999996 -2.092050000000001 0
-1.0211500000000018 -2.130850000000002 0
-0.8176500000000009 -2.1692500000000003 0
-0.6253099999999989 -2.2072500000000006 0
-0.4438900000000001 -2.2448500000000005 0
-0.2731499999999998 -2.28205 0
-0.1128499999999999 -2.318850000000001 0
3.724999999999978e-2 -2.35525 0
0.1773899999999995 -2.3912500000000003 0
0.3078099999999995 -2.4268500000000004 0
0.42874999999999996 -2.46205 0
0.5404500000000012 -2.4968499999999993 0
0.643149999999999 -2.5312500000000004 0
0.7370900000000002 -2.565249999999999 0
0.8225100000000007 -2.598849999999999 0
0.8996499999999985 -2.6320500000000013 0
0.9687500000000027 -2.6648499999999986 0
1.0300500000000001 -2.697250000000002 0
1.0837899999999978 -2.729250000000003 0
1.1302099999999982 -2.7608500000000014 0
1.1695500000000036 -2.792049999999997 0
1.202049999999999 -2.8228500000000034 0
1.2279499999999999 -2.8532500000000027 0
1.24749 -2.8832499999999994 0
1.2609099999999973 -2.9128500000000024 0
1.2684500000000032 -2.9420499999999983 0
1.2703499999999979 -2.9708500000000004 0
1.2668500000000016 -2.99925 0
1.258189999999999 -3.0272500000000013 0
1.2446100000000015 -3.05485 0
1.2263499999999983 -3.0820500000000006 0
1.2036500000000006 -3.1088499999999986 0
1.176750000000002 -3.1352499999999983 0
1.145889999999996 -3.16125 0
1.1113100000000031 -3.186849999999999 0
1.0732500000000034 -3.2120499999999996 0
1.0319499999999948 -3.2368500000000022 0
0.9876500000000021 -3.261250000000002 0
0.9405899999999967 -3.2852499999999996 0
0.8910100000000032 -3.3088499999999943 0
0.8391500000000018 -3.332050000000004 0
0.7852499999999996 -3.3548500000000026 0
0.7295499999999944 -3.3772499999999983 0
0.672290000000002 -3.3992500000000003 0
0.6137100000000029 -3.4208499999999997 0
0.5540499999999948 -3.4420500000000054 0
0.4935500000000026 -3.4628499999999995 0
0.43244999999999756 -3.48325 0
0.37099000000000437 -3.5032499999999978 0
0.3094099999999944 -3.522850000000002 0
0.24795000000000122 -3.5420499999999944 0
0.18685000000000507 -3.560849999999993 0
0.12634999999999508 -3.5792499999999983 0
6.66900000000048e-2 -3.5972500000000007 0
8.109999999996731e-3 -3.6148500000000006 0
-4.9149999999995586e-2 -3.632049999999998 0
-0.10485000000000078 -3.6488500000000013 0
-0.15875000000000306 -3.665250000000002 0
-0.21060999999999552 -3.6812500000000004 0
-0.2601900000000068 -3.696850000000005 0
-0.30724999999999447 -3.712049999999998 0
-0.3515500000000049 -3.726850000000006 0
-0.3928499999999957 -3.7412499999999937 0
-0.43091000000000435 -3.7552500000000055 0
-0.4654899999999973 -3.768849999999997 0
-0.4963500000000032 -3.7820500000000035 0
-0.5232499999999973 -3.7948499999999985 0
-0.5459499999999995 -3.80725 0
-0.5642100000000028 -3.8192499999999985 0
-0.5777900000000002 -3.8308499999999945 0
-0.5864499999999939 -3.842049999999997 0
-0.5899500000000035 -3.8528500000000054 0
-0.5880499999999955 -3.8632500000000025 0
-0.5805100000000074 -3.873250000000006 0
-0.5670899999999968 -3.8828499999999977 0
-0.5475500000000011 -3.892049999999996 0
-0.5216499999999957 -3.90085 0
-0.4891500000000004 -3.909250000000002 0
-0.4498099999999994 -3.917250000000001 0
-0.40339000000000347 -3.9248500000000064 0
-0.3496499999999969 -3.9320500000000003 0
-0.28834999999999944 -3.9388500000000004 0
-0.21925000000000416 -3.9452500000000024 0
-0.1421099999999953 -3.9512499999999973 0
-5.669000000000146e-2 -3.956850000000003 0
3.724999999999312e-2 -3.9620500000000014 0
0.13995000000000424 -3.9668499999999973 0
0.25165000000000326 -3.9712499999999995 0
0.3725899999999971 -3.9752500000000035 0
0.5030100000000015 -3.978849999999996 0
0.6431499999999968 -3.982049999999999 0
0.7932499999999987 -3.98485 0
0.9535500000000052 -3.9872499999999977 0
1.1242899999999967 -3.989250000000002 0
1.3057099999999977 -3.9908500000000036 0
1.4980500000000063 -3.9920499999999937 0
1.701549999999994 -3.992849999999999 0
1.9164500000000029 -3.9932500000000015 0
2.1429899999999957 -3.9932500000000015 0
2.1429899999999957 -3.9932500000000015 0
-1.5017899999999984 -1.8223499999999992 0
-1.2748500000000007 -1.8611500000000003 0
-1.0595500000000002 -1.899550000000001 0
-0.8556500000000011 -1.937549999999999 0
-0.6629099999999988 -1.9751499999999989 0
-0.4810899999999996 -2.0123500000000005 0
-0.30995000000000106 -2.0491499999999996 0
-0.14924999999999855 -2.0855500000000005 0
1.2499999999993072e-3 -2.121550000000001 0
0.14178999999999942 -2.157150000000001 0
0.2726099999999998 -2.1923500000000007 0
0.3939500000000007 -2.22715 0
0.5060500000000001 -2.261550000000001 0
0.6091500000000005 -2.2955499999999995 0
0.70349 -2.32915 0
0.7893099999999986 -2.3623499999999997 0
0.8668500000000012 -2.3951499999999992 0
0.9363499999999991 -2.4275500000000005 0
0.9980499999999992 -2.4595499999999992 0
1.0521899999999995 -2.4911499999999998 0
1.0990100000000025 -2.5223499999999976 0
1.1387499999999973 -2.5531499999999996 0
1.1716499999999996 -2.583549999999999 0
1.1979500000000032 -2.61355 0
1.217889999999997 -2.643150000000003 0
1.2317100000000014 -2.672349999999999 0
1.239650000000001 -2.701150000000001 0
1.2419499999999983 -2.7295500000000006 0
1.2388500000000002 -2.7575499999999975 0
1.2305900000000003 -2.7851500000000007 0
1.217410000000001 -2.8123500000000012 0
1.1995500000000003 -2.839149999999999 0
1.1772500000000008 -2.865549999999999 0
1.1507500000000004 -2.8915500000000005 0
1.1202899999999971 -2.917150000000004 0
1.0861100000000024 -2.9423500000000002 0
1.0484500000000008 -2.967150000000003 0
1.0075499999999948 -2.991550000000003 0
0.9636500000000048 -3.0155499999999957 0
0.916990000000002 -3.0391499999999994 0
0.8678099999999933 -3.0623500000000003 0
0.8163500000000035 -3.0851499999999987 0
0.7628500000000038 -3.1075500000000034 0
0.7075499999999924 -3.1295500000000054 0
0.6506900000000027 -3.151149999999996 0
0.5925099999999972 -3.1723500000000016 0
0.5332500000000007 -3.1931499999999957 0
0.4731500000000022 -3.213549999999996 0
0.41244999999999976 -3.233550000000003 0
0.3513900000000003 -3.253149999999998 0
0.29021000000000186 -3.2723499999999994 0
0.2291500000000024 -3.2911499999999982 0
0.16845 -3.3095500000000033 0
0.10834999999999262 -3.327550000000006 0
4.909000000000496e-2 -3.3451499999999967 0
-9.090000000000487e-3 -3.362350000000003 0
-6.594999999999906e-2 -3.3791499999999974 0
-0.12125000000000163 -3.3955499999999983 0
-0.1747500000000013 -3.4115499999999965 0
-0.22621000000000002 -3.427150000000001 0
-0.2753899999999998 -3.442350000000003 0
-0.3220500000000026 -3.457150000000002 0
-0.36594999999999267 -3.471549999999999 0
-0.4068500000000075 -3.4855500000000017 0
-0.44450999999999574 -3.499149999999993 0
-0.47869000000000383 -3.5123499999999996 0
-0.5091499999999982 -3.5251499999999947 0
-0.5356499999999986 -3.537549999999996 0
-0.5579499999999982 -3.5495500000000035 0
-0.5758099999999988 -3.5611499999999996 0
-0.5889900000000026 -3.572350000000002 0
-0.5972500000000025 -3.5831500000000016 0
-0.6003500000000006 -3.5935499999999987 0
-0.5980499999999989 -3.603549999999993 0
-0.5901099999999992 -3.613149999999994 0
-0.5762899999999949 -3.622350000000001 0
-0.5563500000000055 -3.631150000000005 0
-0.5300499999999975 -3.639549999999998 0
-0.49714999999999954 -3.6475500000000016 0
-0.45741000000000476 -3.6551500000000026 0
-0.41058999999999735 -3.6623499999999964 0
-0.35644999999999705 -3.669150000000001 0
-0.2947500000000014 -3.675550000000003 0
-0.22524999999999906 -3.6815500000000023 0
-0.1477100000000009 -3.6871500000000035 0
-6.189e-2 -3.692350000000002 0
3.24499999999972e-2 -3.6971500000000024 0
0.13555000000000206 -3.70155 0
0.24764999999999926 -3.7055499999999997 0
0.3689900000000046 -3.709150000000001 0
0.4998099999999983 -3.7123500000000043 0
0.6403499999999962 -3.7151500000000004 0
0.7908500000000007 -3.7175499999999984 0
0.951550000000001 -3.719549999999998 0
1.122689999999995 -3.7211499999999997 0
1.3045100000000076 -3.7223499999999987 0
1.497250000000001 -3.723150000000004 0
1.7011499999999913 -3.7235500000000066 0
1.9164500000000029 -3.7235499999999977 0
2.1433899999999984 -3.723149999999995 0
2.1433899999999984 -3.723149999999995 0
-1.5405899999999995 -1.6032500000000005 0
-1.3132500000000014 -1.6416500000000012 0
-1.0975499999999982 -1.6796499999999992 0
-0.893250000000001 -1.7172500000000013 0
-0.7001100000000005 -1.7544500000000007 0
-0.5178899999999986 -1.7912499999999998 0
-0.34635000000000193 -1.8276500000000007 0
-0.18524999999999903 -1.863649999999999 0
-3.435000000000077e-2 -1.899249999999999 0
0.10658999999999974 -1.9344499999999987 0
0.23781000000000052 -1.969249999999998 0
0.3595499999999996 -2.003649999999999 0
0.47205000000000163 -2.0376499999999997 0
0.5755500000000002 -2.07125 0
0.67029 -2.10445 0
0.7565099999999991 -2.1372500000000016 0
0.8344499999999999 -2.1696500000000007 0
0.9043500000000004 -2.2016499999999994 0
0.9664499999999987 -2.23325 0
1.0209900000000016 -2.26445 0
1.0682100000000005 -2.29525 0
1.108349999999998 -2.3256500000000013 0
1.1416499999999985 -2.3556500000000002 0
1.1683500000000002 -2.3852499999999965 0
1.1886900000000011 -2.414449999999997 0
1.2029099999999993 -2.443249999999999 0
1.2112500000000015 -2.4716499999999986 0
1.2139500000000014 -2.49965 0
1.211249999999997 -2.527250000000003 0
1.2033899999999997 -2.554449999999999 0
1.190610000000003 -2.581249999999997 0
1.1731500000000006 -2.6076500000000014 0
1.1512499999999992 -2.633650000000003 0
1.125149999999997 -2.659250000000002 0
1.0950900000000008 -2.6844499999999982 0
1.0613099999999998 -2.709250000000001 0
1.0240500000000008 -2.7336499999999964 0
0.9835500000000019 -2.757649999999998 0
0.9400500000000012 -2.7812500000000018 0
0.893790000000001 -2.8044500000000028 0
0.8450099999999949 -2.8272500000000056 0
0.7939499999999988 -2.849649999999997 0
0.7408500000000018 -2.871649999999999 0
0.6859500000000018 -2.8932499999999983 0
0.629489999999997 -2.914450000000004 0
0.571710000000003 -2.935249999999998 0
0.5128500000000003 -2.9556499999999986 0
0.4531499999999955 -2.9756500000000052 0
0.3928500000000046 -2.9952500000000004 0
0.3321899999999989 -3.014450000000002 0
0.27141000000000304 -3.0332500000000007 0
0.21074999999999733 -3.0516500000000057 0
0.15044999999999753 -3.0696499999999993 0
9.075000000000166e-2 -3.087249999999999 0
3.1889999999998864e-2 -3.1044499999999964 0
-2.5889999999995084e-2 -3.12125 0
-8.234999999999992e-2 -3.1376500000000007 0
-0.13724999999999987 -3.153650000000008 0
-0.1903500000000058 -3.1692500000000035 0
-0.2414100000000019 -3.1844499999999965 0
-0.29018999999999906 -3.1992499999999957 0
-0.33644999999999925 -3.2136500000000012 0
-0.37994999999999557 -3.2276499999999952 0
-0.4204499999999989 -3.2412500000000044 0
-0.4577100000000023 -3.254450000000002 0
-0.49148999999999887 -3.267249999999997 0
-0.5215499999999995 -3.2796499999999984 0
-0.5476500000000062 -3.291650000000006 0
-0.5695499999999942 -3.303249999999993 0
-0.5870100000000011 -3.3144500000000043 0
-0.5997900000000023 -3.3252499999999996 0
-0.6076499999999996 -3.3356499999999967 0
-0.6103499999999951 -3.34565 0
-0.6076499999999996 -3.355250000000005 0
-0.5993100000000062 -3.3644500000000033 0
-0.5850899999999992 -3.3732499999999987 0
-0.5647499999999983 -3.3816500000000005 0
-0.538050000000001 -3.3896499999999996 0
-0.5047500000000005 -3.3972500000000005 0
-0.46460999999999864 -3.404449999999999 0
-0.4173900000000019 -3.411249999999999 0
-0.362849999999999 -3.4176499999999965 0
-0.30075000000000074 -3.4236500000000003 0
-0.23085000000000022 -3.429249999999997 0
-0.15290999999999944 -3.43445 0
-6.669000000000036e-2 -3.4392500000000004 0
2.8049999999999464e-2 -3.443649999999998 0
0.1315500000000025 -3.4476499999999977 0
0.24404999999999788 -3.451249999999999 0
0.3657900000000014 -3.454449999999998 0
0.4970100000000022 -3.4572499999999984 0
0.6379499999999982 -3.459650000000001 0
0.7888500000000009 -3.4616500000000006 0
0.9499499999999994 -3.463250000000002 0
1.121489999999996 -3.464450000000001 0
1.3037100000000024 -3.4652499999999975 0
1.4968499999999985 -3.46565 0
1.7011500000000002 -3.4656499999999957 0
1.9168500000000055 -3.4652499999999975 0
2.1441899999999947 -3.464450000000001 0
2.1441899999999947 -3.464450000000001 0
-1.5789900000000001 -1.3953100000000007 0
-1.3512499999999994 -1.4333099999999988 0
-1.1351500000000003 -1.4709100000000008 0
-0.9304500000000004 -1.5081100000000003 0
-0.7369099999999995 -1.5449099999999993 0
-0.5542899999999995 -1.5813100000000002 0
-0.3823500000000002 -1.6173100000000007 0
-0.2208499999999991 -1.6529099999999997 0
-6.955000000000044e-2 -1.6881100000000016 0
7.179000000000046e-2 -1.7229100000000008 0
0.20340999999999942 -1.7573100000000008 0
0.3255499999999989 -1.7913100000000004 0
0.43845000000000134 -1.8249099999999996 0
0.5423500000000003 -1.8581100000000006 0
0.6374899999999983 -1.8909100000000012 0
0.72411 -1.9233100000000003 0
0.8024500000000012 -1.955309999999999 0
0.8727499999999999 -1.9869100000000017 0
0.9352499999999986 -2.0181099999999996 0
0.9901900000000019 -2.0489099999999993 0
1.037809999999999 -2.079310000000001 0
1.078349999999999 -2.10931 0
1.1120500000000022 -2.1389099999999983 0
1.1391499999999999 -2.168110000000001 0
1.159889999999999 -2.196910000000001 0
1.1745099999999997 -2.2253100000000003 0
1.1832500000000001 -2.2533100000000017 0
1.1863499999999982 -2.2809100000000004 0
1.184050000000001 -2.3081099999999966 0
1.1765900000000018 -2.334909999999999 0
1.1642099999999989 -2.361310000000003 0
1.147149999999999 -2.3873100000000003 0
1.1256500000000003 -2.4129099999999992 0
1.0999500000000006 -2.43811 0
1.0702899999999982 -2.462909999999998 0
1.0369100000000042 -2.487309999999998 0
1.000049999999999 -2.5113100000000044 0
0.9599499999999983 -2.534909999999999 0
0.9168500000000002 -2.55811 0
0.8709899999999982 -2.5809099999999985 0
0.8226100000000036 -2.6033099999999987 0
0.7719499999999968 -2.6253100000000007 0
0.7192500000000024 -2.64691 0
0.6647499999999962 -2.6681100000000013 0
0.6086900000000028 -2.6889099999999955 0
0.5513100000000026 -2.7093100000000003 0
0.49284999999999357 -2.729309999999998 0
0.4335500000000003 -2.7489099999999933 0
0.37365000000000315 -2.7681099999999947 0
0.31339000000000006 -2.7869100000000024 0
0.25300999999999796 -2.8053099999999986 0
0.19275000000000375 -2.823310000000001 0
0.1328499999999977 -2.840910000000001 0
7.355000000000445e-2 -2.858109999999998 0
1.5089999999995385e-2 -2.8749100000000016 0
-4.228999999999594e-2 -2.8913100000000025 0
-9.835000000000704e-2 -2.9073100000000007 0
-0.1528499999999955 -2.9229099999999963 0
-0.2055499999999988 -2.9381099999999982 0
-0.25621000000000116 -2.9529099999999975 0
-0.3045900000000046 -2.967310000000003 0
-0.35044999999999327 -2.981309999999997 0
-0.39355000000000473 -2.994910000000006 0
-0.43364999999999654 -3.008109999999995 0
-0.4705099999999973 -3.020909999999999 0
-0.5038900000000002 -3.0333100000000046 0
-0.5335500000000071 -3.0453100000000033 0
-0.5592499999999934 -3.056909999999995 0
-0.5807500000000054 -3.0681100000000017 0
-0.5978099999999964 -3.078909999999997 0
-0.6101899999999993 -3.089310000000003 0
-0.6176500000000029 -3.099310000000002 0
-0.6199500000000002 -3.108909999999998 0
-0.6168499999999977 -3.1181100000000006 0
-0.6081100000000017 -3.1269100000000005 0
-0.593490000000001 -3.135309999999998 0
-0.5727499999999974 -3.143309999999997 0
-0.545650000000002 -3.1509100000000023 0
-0.5119499999999988 -3.1581100000000006 0
-0.4714099999999988 -3.164910000000001 0
-0.42378999999999944 -3.1713100000000027 0
-0.3688500000000028 -3.177310000000002 0
-0.30634999999999746 -3.182909999999999 0
-0.2360500000000032 -3.1881100000000018 0
-0.1577099999999998 -3.1929099999999977 0
-7.10899999999981e-2 -3.19731 0
2.4049999999999905e-2 -3.2013099999999994 0
0.12795000000000112 -3.204910000000001 0
0.24084999999999912 -3.2081099999999996 0
0.3629900000000008 -3.21091 0
0.49460999999999977 -3.2133100000000026 0
0.6359499999999985 -3.2153100000000023 0
0.7872499999999993 -3.2169099999999995 0
0.9487500000000004 -3.2181099999999985 0
1.1206899999999997 -3.2189099999999993 0
1.3033099999999997 -3.2193099999999975 0
1.496850000000003 -3.2193099999999975 0
1.7015499999999983 -3.2189100000000037 0
1.9176500000000019 -3.2181099999999985 0
2.1453899999999937 -3.216910000000004 0
2.1453899999999937 -3.216910000000004 0
-1.6169899999999982 -1.1982899999999996 0
-1.3888500000000015 -1.2358900000000017 0
-1.1723499999999998 -1.273089999999999 0
-0.9672499999999995 -1.3098900000000002 0
-0.7733100000000004 -1.34629 0
-0.59029 -1.3822899999999994 0
-0.41794999999999916 -1.4178899999999994 0
-0.256050000000001 -1.4530900000000002 0
-0.10434999999999972 -1.4878899999999995 0
3.739000000000048e-2 -1.5222899999999995 0
0.16940999999999984 -1.5562900000000002 0
0.2919499999999997 -1.5898900000000005 0
0.40525000000000033 -1.6230900000000004 0
0.5095499999999997 -1.6558899999999999 0
0.6050899999999992 -1.68829 0
0.6921100000000013 -1.7202899999999988 0
0.7708499999999985 -1.7518900000000004 0
0.841550000000002 -1.7830899999999983 0
0.9044499999999989 -1.8138900000000002 0
0.9597900000000004 -1.8442899999999995 0
1.00781 -1.8742900000000007 0
1.0487500000000005 -1.9038899999999992 0
1.0828499999999996 -1.9330900000000018 0
1.11035 -1.9618899999999995 0
1.1314899999999994 -1.9902900000000012 0
1.1465099999999984 -2.0182900000000004 0
1.1556500000000014 -2.045889999999999 0
1.1591500000000021 -2.0730899999999997 0
1.1572499999999986 -2.099890000000002 0
1.1501899999999976 -2.126290000000002 0
1.1382100000000017 -2.152289999999999 0
1.12155 -2.177889999999998 0
1.1004499999999995 -2.2030899999999987 0
1.0751500000000025 -2.2278900000000013 0
1.0458899999999982 -2.2522900000000012 0
1.012909999999998 -2.2762899999999986 0
0.9764500000000043 -2.2998899999999978 0
0.9367499999999973 -2.323090000000003 0
0.8940500000000018 -2.3458900000000016 0
0.848589999999998 -2.368290000000002 0
0.8006100000000016 -2.3902899999999994 0
0.7503499999999974 -2.4118899999999988 0
0.6980500000000012 -2.43309 0
0.643950000000002 -2.4538899999999986 0
0.588289999999998 -2.4742900000000034 0
0.5313100000000048 -2.4942900000000012 0
0.4732499999999984 -2.5138900000000053 0
0.4143499999999989 -2.5330900000000023 0
0.35484999999999545 -2.551890000000001 0
0.29499000000000386 -2.5702899999999973 0
0.2350099999999955 -2.5882899999999998 0
0.1751500000000039 -2.605889999999995 0
0.11565000000000047 -2.6230900000000013 0
5.6750000000000966e-2 -2.6398900000000003 0
-1.3100000000054735e-3 -2.656290000000001 0
-5.828999999999418e-2 -2.672289999999995 0
-0.11395000000000266 -2.687890000000004 0
-0.16804999999999737 -2.7030900000000013 0
-0.22034999999999805 -2.7178900000000006 0
-0.2706100000000067 -2.7322900000000017 0
-0.3185899999999986 -2.7462899999999957 0
-0.3640500000000024 -2.7598900000000004 0
-0.4067499999999935 -2.773089999999998 0
-0.44645000000000046 -2.785890000000002 0
-0.48291000000000306 -2.7982900000000033 0
-0.5158899999999988 -2.8102899999999975 0
-0.5451499999999987 -2.8218900000000025 0
-0.5704500000000001 -2.8330900000000003 0
-0.5915500000000007 -2.84389 0
-0.6082100000000024 -2.8542900000000015 0
-0.6201899999999982 -2.8642900000000004 0
-0.6272499999999992 -2.873890000000001 0
-0.6291500000000028 -2.8830899999999993 0
-0.6256499999999976 -2.891889999999999 0
-0.616509999999999 -2.900290000000001 0
-0.6014900000000001 -2.90829 0
-0.5803500000000028 -2.915890000000001 0
-0.5528500000000003 -2.9230899999999993 0
-0.5187499999999989 -2.9298899999999994 0
-0.47781000000000073 -2.9362900000000014 0
-0.4297899999999988 -2.9422900000000007 0
-0.3744499999999995 -2.947890000000002 0
-0.31155000000000044 -2.9530900000000004 0
-0.24084999999999912 -2.957890000000001 0
-0.16211000000000197 -2.962290000000003 0
-7.508999999999766e-2 -2.966289999999998 0
2.0449999999998525e-2 -2.9698899999999995 0
0.12475000000000236 -2.9730899999999982 0
0.23804999999999854 -2.9758900000000033 0
0.3605899999999984 -2.978290000000001 0
0.49261 -2.980290000000001 0
0.6343500000000013 -2.981889999999998 0
0.7860500000000004 -2.9830900000000016 0
0.9479499999999996 -2.9838900000000024 0
1.1202900000000016 -2.9842900000000006 0
1.3033099999999997 -2.9842900000000006 0
1.4972499999999966 -2.9838900000000024 0
1.7023500000000036 -2.983089999999997 0
1.9188499999999964 -2.9818900000000026 0
2.146990000000004 -2.9802899999999966 0
2.146990000000004 -2.9802899999999966 0
-1.6545900000000002 -1.0119499999999992 0
-1.4260499999999987 -1.0491499999999987 0
-1.209150000000001 -1.08595 0
-1.0036499999999993 -1.1223499999999997 0
-0.8093099999999998 -1.1583500000000002 0
-0.6258900000000001 -1.1939500000000003 0
-0.45314999999999994 -1.22915 0
-0.2908500000000003 -1.2639500000000004 0
-0.1387499999999997 -1.2983500000000003 0
3.389999999999782e-3 -1.33235 0
0.13580999999999954 -1.3659500000000002 0
0.2587499999999998 -1.3991500000000001 0
0.37245000000000084 -1.4319499999999996 0
0.4771499999999995 -1.4643499999999998 0
0.5730900000000005 -1.4963499999999996 0
0.6605099999999997 -1.5279500000000001 0
0.7396500000000006 -1.5591500000000003 0
0.8107500000000001 -1.589950000000001 0
0.8740499999999995 -1.6203500000000004 0
0.9297899999999992 -1.6503500000000004 0
0.9782100000000016 -1.679949999999999 0
1.019549999999998 -1.7091500000000015 0
1.054050000000002 -1.7379499999999992 0
1.0819499999999982 -1.766350000000001 0
1.1034900000000003 -1.7943500000000001 0
1.1189099999999996 -1.8219499999999988 0
1.1284500000000008 -1.8491499999999994 0
1.1323499999999997 -1.8759499999999996 0
1.1308499999999988 -1.9023499999999993 0
1.1241900000000005 -1.9283499999999965 0
1.1126100000000028 -1.9539499999999999 0
1.0963499999999993 -1.9791500000000006 0
1.0756499999999969 -2.003949999999999 0
1.0507500000000025 -2.0283499999999988 0
1.0218900000000009 -2.0523500000000006 0
0.9893099999999988 -2.0759499999999997 0
0.9532499999999988 -2.0991500000000007 0
0.9139499999999989 -2.121949999999999 0
0.8716500000000016 -2.1443499999999993 0
0.8265900000000004 -2.1663500000000013 0
0.7790100000000022 -2.1879500000000007 0
0.7291499999999962 -2.209150000000002 0
0.6772500000000026 -2.229949999999996 0
0.6235499999999972 -2.250350000000001 0
0.5682900000000002 -2.2703499999999988 0
0.5117100000000008 -2.2899499999999984 0
0.4540500000000014 -2.30915 0
0.39555000000000007 -2.3279499999999986 0
0.33644999999999925 -2.3463499999999993 0
0.2769900000000014 -2.3643500000000017 0
0.2174100000000001 -2.3819500000000016 0
0.15794999999999781 -2.3991500000000032 0
9.885000000000144e-2 -2.415949999999998 0
4.035000000000011e-2 -2.4323499999999987 0
-1.730999999999927e-2 -2.4483500000000014 0
-7.389000000000312e-2 -2.4639500000000014 0
-0.1291500000000001 -2.479149999999999 0
-0.18284999999999663 -2.493949999999998 0
-0.23474999999999913 -2.508349999999999 0
-0.2846100000000007 -2.522350000000002 0
-0.3321900000000033 -2.5359500000000024 0
-0.3772500000000001 -2.54915 0
-0.4195499999999974 -2.5619499999999995 0
-0.45885000000000176 -2.574350000000001 0
-0.4949099999999973 -2.5863499999999995 0
-0.5274900000000038 -2.59795 0
-0.5563499999999966 -2.609149999999998 0
-0.5812499999999998 -2.619950000000002 0
-0.6019500000000022 -2.6303500000000035 0
-0.6182100000000013 -2.640349999999998 0
-0.629789999999999 -2.6499499999999987 0
-0.6364499999999973 -2.659149999999997 0
-0.6379500000000027 -2.667950000000001 0
-0.6340499999999993 -2.6763499999999985 0
-0.6245099999999981 -2.6843499999999976 0
-0.609090000000001 -2.691950000000003 0
-0.5875500000000011 -2.6991500000000013 0
-0.5596500000000004 -2.7059500000000014 0
-0.5251500000000009 -2.712349999999999 0
-0.4838100000000001 -2.7183499999999983 0
-0.43538999999999994 -2.7239499999999994 0
-0.37964999999999804 -2.729149999999998 0
-0.3163500000000008 -2.7339499999999983 0
-0.2452500000000013 -2.7383500000000005 0
-0.1661099999999971 -2.74235 0
-7.868999999999904e-2 -2.7459500000000014 0
1.7249999999999766e-2 -2.74915 0
0.12194999999999734 -2.751950000000001 0
0.23565000000000058 -2.7543499999999987 0
0.35858999999999863 -2.7563499999999985 0
0.49101000000000283 -2.75795 0
0.6331499999999979 -2.759149999999999 0
0.7852499999999996 -2.75995 0
0.9475500000000014 -2.760349999999998 0
1.1202900000000016 -2.760349999999998 0
1.303709999999998 -2.75995 0
1.4980500000000019 -2.759149999999999 0
1.7035499999999981 -2.75795 0
1.9204500000000024 -2.7563499999999985 0
2.1489899999999995 -2.754350000000003 0
2.1489899999999995 -2.754350000000003 0
-1.6917899999999997 -0.8360499999999993 0
-1.46285 -0.8728500000000006 0
-1.2455500000000008 -0.9092500000000003 0
-1.0396499999999997 -0.9452499999999997 0
-0.8449099999999998 -0.9808499999999998 0
-0.6610899999999997 -1.0160499999999995 0
-0.48795000000000033 -1.0508499999999998 0
-0.32525000000000026 -1.0852499999999998 0
-0.1727499999999993 -1.1192499999999994 0
-3.0210000000000514e-2 -1.1528500000000002 0
0.10260999999999965 -1.1860499999999996 0
0.22595000000000032 -1.2188499999999995 0
0.34005000000000063 -1.2512499999999998 0
0.4451499999999997 -1.2832500000000002 0
0.54149 -1.3148499999999996 0
0.6293099999999996 -1.3460499999999997 0
0.7088499999999998 -1.3768499999999995 0
0.7803500000000008 -1.40725 0
0.8440499999999995 -1.43725 0
0.9001900000000007 -1.4668499999999995 0
0.949009999999999 -1.496050000000001 0
0.9907500000000002 -1.5248499999999998 0
1.0256500000000002 -1.5532499999999994 0
1.053949999999999 -1.5812500000000007 0
1.0758900000000016 -1.6088499999999994 0
1.091709999999999 -1.63605 0
1.1016500000000007 -1.6628500000000002 0
1.10595 -1.68925 0
1.1048500000000017 -1.7152499999999993 0
1.098589999999997 -1.7408500000000027 0
1.087410000000002 -1.766049999999999 0
1.0715500000000011 -1.7908500000000016 0