# vtk DataFile Version 3.0
created by writeVTK (Matlab implementation by Erik Vidholm)
ASCII
DATASET STRUCTURED_POINTS
DIMENSIONS 101 101 1
ORIGIN -5.000000 -5.000000 0.000000
SPACING 0.1000000 0.1000000 0.1000000
POINT_DATA 10201
SCALARS image_data double
LOOKUP_TABLE default
  2.500000e+000 
  2.357701e+000 
  2.238016e+000 
  2.139781e+000 
  2.061856e+000 
  2.003125e+000 
  1.962496e+000 
  1.938901e+000 
  1.931296e+000 
  1.938661e+000 
  1.960000e+000 
  1.994341e+000 
  2.040736e+000 
  2.098261e+000 
  2.166016e+000 
  2.243125e+000 
  2.328736e+000 
  2.422021e+000 
  2.522176e+000 
  2.628421e+000 
  2.740000e+000 
  2.856181e+000 
  2.976256e+000 
  3.099541e+000 
  3.225376e+000 
  3.353125e+000 
  3.482176e+000 
  3.611941e+000 
  3.741856e+000 
  3.871381e+000 
  4.000000e+000 
  4.127221e+000 
  4.252576e+000 
  4.375621e+000 
  4.495936e+000 
  4.613125e+000 
  4.726816e+000 
  4.836661e+000 
  4.942336e+000 
  5.043541e+000 
  5.140000e+000 
  5.231461e+000 
  5.317696e+000 
  5.398501e+000 
  5.473696e+000 
  5.543125e+000 
  5.606656e+000 
  5.664181e+000 
  5.715616e+000 
  5.760901e+000 
  5.800000e+000 
  5.832901e+000 
  5.859616e+000 
  5.880181e+000 
  5.894656e+000 
  5.903125e+000 
  5.905696e+000 
  5.902501e+000 
  5.893696e+000 
  5.879461e+000 
  5.860000e+000 
  5.835541e+000 
  5.806336e+000 
  5.772661e+000 
  5.734816e+000 
  5.693125e+000 
  5.647936e+000 
  5.599621e+000 
  5.548576e+000 
  5.495221e+000 
  5.440000e+000 
  5.383381e+000 
  5.325856e+000 
  5.267941e+000 
  5.210176e+000 
  5.153125e+000 
  5.097376e+000 
  5.043541e+000 
  4.992256e+000 
  4.944181e+000 
  4.900000e+000 
  4.860421e+000 
  4.826176e+000 
  4.798021e+000 
  4.776736e+000 
  4.763125e+000 
  4.758016e+000 
  4.762261e+000 
  4.776736e+000 
  4.802341e+000 
  4.840000e+000 
  4.890661e+000 
  4.955296e+000 
  5.034901e+000 
  5.130496e+000 
  5.243125e+000 
  5.373856e+000 
  5.523781e+000 
  5.694016e+000 
  5.885701e+000 
  6.100000e+000 
  2.270501e+000 
  2.124242e+000 
  2.000637e+000 
  1.898522e+000 
  1.816757e+000 
  1.754226e+000 
  1.709837e+000 
  1.682522e+000 
  1.671237e+000 
  1.674962e+000 
  1.692701e+000 
  1.723482e+000 
  1.766357e+000 
  1.820402e+000 
  1.884717e+000 
  1.958426e+000 
  2.040677e+000 
  2.130642e+000 
  2.227517e+000 
  2.330522e+000 
  2.438901e+000 
  2.551922e+000 
  2.668877e+000 
  2.789082e+000 
  2.911877e+000 
  3.036626e+000 
  3.162717e+000 
  3.289562e+000 
  3.416597e+000 
  3.543282e+000 
  3.669101e+000 
  3.793562e+000 
  3.916197e+000 
  4.036562e+000 
  4.154237e+000 
  4.268826e+000 
  4.379957e+000 
  4.487282e+000 
  4.590477e+000 
  4.689242e+000 
  4.783301e+000 
  4.872402e+000 
  4.956317e+000 
  5.034842e+000 
  5.107797e+000 
  5.175026e+000 
  5.236397e+000 
  5.291802e+000 
  5.341157e+000 
  5.384402e+000 
  5.421501e+000 
  5.452442e+000 
  5.477237e+000 
  5.495922e+000 
  5.508557e+000 
  5.515226e+000 
  5.516037e+000 
  5.511122e+000 
  5.500637e+000 
  5.484762e+000 
  5.463701e+000 
  5.437682e+000 
  5.406957e+000 
  5.371802e+000 
  5.332517e+000 
  5.289426e+000 
  5.242877e+000 
  5.193242e+000 
  5.140917e+000 
  5.086322e+000 
  5.029901e+000 
  4.972122e+000 
  4.913477e+000 
  4.854482e+000 
  4.795677e+000 
  4.737626e+000 
  4.680917e+000 
  4.626162e+000 
  4.573997e+000 
  4.525082e+000 
  4.480101e+000 
  4.439762e+000 
  4.404797e+000 
  4.375962e+000 
  4.354037e+000 
  4.339826e+000 
  4.334157e+000 
  4.337882e+000 
  4.351877e+000 
  4.377042e+000 
  4.414301e+000 
  4.464602e+000 
  4.528917e+000 
  4.608242e+000 
  4.703597e+000 
  4.816026e+000 
  4.946597e+000 
  5.096402e+000 
  5.266557e+000 
  5.458202e+000 
  5.672501e+000 
  2.065216e+000 
  1.915037e+000 
  1.787552e+000 
  1.681597e+000 
  1.596032e+000 
  1.529741e+000 
  1.481632e+000 
  1.450637e+000 
  1.435712e+000 
  1.435837e+000 
  1.450016e+000 
  1.477277e+000 
  1.516672e+000 
  1.567277e+000 
  1.628192e+000 
  1.698541e+000 
  1.777472e+000 
  1.864157e+000 
  1.957792e+000 
  2.057597e+000 
  2.162816e+000 
  2.272717e+000 
  2.386592e+000 
  2.503757e+000 
  2.623552e+000 
  2.745341e+000 
  2.868512e+000 
  2.992477e+000 
  3.116672e+000 
  3.240557e+000 
  3.363616e+000 
  3.485357e+000 
  3.605312e+000 
  3.723037e+000 
  3.838112e+000 
  3.950141e+000 
  4.058752e+000 
  4.163597e+000 
  4.264352e+000 
  4.360717e+000 
  4.452416e+000 
  4.539197e+000 
  4.620832e+000 
  4.697117e+000 
  4.767872e+000 
  4.832941e+000 
  4.892192e+000 
  4.945517e+000 
  4.992832e+000 
  5.034077e+000 
  5.069216e+000 
  5.098237e+000 
  5.121152e+000 
  5.137997e+000 
  5.148832e+000 
  5.153741e+000 
  5.152832e+000 
  5.146237e+000 
  5.134112e+000 
  5.116637e+000 
  5.094016e+000 
  5.066477e+000 
  5.034272e+000 
  4.997677e+000 
  4.956992e+000 
  4.912541e+000 
  4.864672e+000 
  4.813757e+000 
  4.760192e+000 
  4.704397e+000 
  4.646816e+000 
  4.587917e+000 
  4.528192e+000 
  4.468157e+000 
  4.408352e+000 
  4.349341e+000 
  4.291712e+000 
  4.236077e+000 
  4.183072e+000 
  4.133357e+000 
  4.087616e+000 
  4.046557e+000 
  4.010912e+000 
  3.981437e+000 
  3.958912e+000 
  3.944141e+000 
  3.937952e+000 
  3.941197e+000 
  3.954752e+000 
  3.979517e+000 
  4.016416e+000 
  4.066397e+000 
  4.130432e+000 
  4.209517e+000 
  4.304672e+000 
  4.416941e+000 
  4.547392e+000 
  4.697117e+000 
  4.867232e+000 
  5.058877e+000 
  5.273216e+000 
  1.882981e+000 
  1.728922e+000 
  1.597597e+000 
  1.487842e+000 
  1.398517e+000 
  1.328506e+000 
  1.276717e+000 
  1.242082e+000 
  1.223557e+000 
  1.220122e+000 
  1.230781e+000 
  1.254562e+000 
  1.290517e+000 
  1.337722e+000 
  1.395277e+000 
  1.462306e+000 
  1.537957e+000 
  1.621402e+000 
  1.711837e+000 
  1.808482e+000 
  1.910581e+000 
  2.017402e+000 
  2.128237e+000 
  2.242402e+000 
  2.359237e+000 
  2.478106e+000 
  2.598397e+000 
  2.719522e+000 
  2.840917e+000 
  2.962042e+000 
  3.082381e+000 
  3.201442e+000 
  3.318757e+000 
  3.433882e+000 
  3.546397e+000 
  3.655906e+000 
  3.762037e+000 
  3.864442e+000 
  3.962797e+000 
  4.056802e+000 
  4.146181e+000 
  4.230682e+000 
  4.310077e+000 
  4.384162e+000 
  4.452757e+000 
  4.515706e+000 
  4.572877e+000 
  4.624162e+000 
  4.669477e+000 
  4.708762e+000 
  4.741981e+000 
  4.769122e+000 
  4.790197e+000 
  4.805242e+000 
  4.814317e+000 
  4.817506e+000 
  4.814917e+000 
  4.806682e+000 
  4.792957e+000 
  4.773922e+000 
  4.749781e+000 
  4.720762e+000 
  4.687117e+000 
  4.649122e+000 
  4.607077e+000 
  4.561306e+000 
  4.512157e+000 
  4.460002e+000 
  4.405237e+000 
  4.348282e+000 
  4.289581e+000 
  4.229602e+000 
  4.168837e+000 
  4.107802e+000 
  4.047037e+000 
  3.987106e+000 
  3.928597e+000 
  3.872122e+000 
  3.818317e+000 
  3.767842e+000 
  3.721381e+000 
  3.679642e+000 
  3.643357e+000 
  3.613282e+000 
  3.590197e+000 
  3.574906e+000 
  3.568237e+000 
  3.571042e+000 
  3.584197e+000 
  3.608602e+000 
  3.645181e+000 
  3.694882e+000 
  3.758677e+000 
  3.837562e+000 
  3.932557e+000 
  4.044706e+000 
  4.175077e+000 
  4.324762e+000 
  4.494877e+000 
  4.686562e+000 
  4.900981e+000 
  1.722656e+000 
  1.564757e+000 
  1.429632e+000 
  1.316117e+000 
  1.223072e+000 
  1.149381e+000 
  1.093952e+000 
  1.055717e+000 
  1.033632e+000 
  1.026677e+000 
  1.033856e+000 
  1.054197e+000 
  1.086752e+000 
  1.130597e+000 
  1.184832e+000 
  1.248581e+000 
  1.320992e+000 
  1.401237e+000 
  1.488512e+000 
  1.582037e+000 
  1.681056e+000 
  1.784837e+000 
  1.892672e+000 
  2.003877e+000 
  2.117792e+000 
  2.233781e+000 
  2.351232e+000 
  2.469557e+000 
  2.588192e+000 
  2.706597e+000 
  2.824256e+000 
  2.940677e+000 
  3.055392e+000 
  3.167957e+000 
  3.277952e+000 
  3.384981e+000 
  3.488672e+000 
  3.588677e+000 
  3.684672e+000 
  3.776357e+000 
  3.863456e+000 
  3.945717e+000 
  4.022912e+000 
  4.094837e+000 
  4.161312e+000 
  4.222181e+000 
  4.277312e+000 
  4.326597e+000 
  4.369952e+000 
  4.407317e+000 
  4.438656e+000 
  4.463957e+000 
  4.483232e+000 
  4.496517e+000 
  4.503872e+000 
  4.505381e+000 
  4.501152e+000 
  4.491317e+000 
  4.476032e+000 
  4.455477e+000 
  4.429856e+000 
  4.399397e+000 
  4.364352e+000 
  4.324997e+000 
  4.281632e+000 
  4.234581e+000 
  4.184192e+000 
  4.130837e+000 
  4.074912e+000 
  4.016837e+000 
  3.957056e+000 
  3.896037e+000 
  3.834272e+000 
  3.772277e+000 
  3.710592e+000 
  3.649781e+000 
  3.590432e+000 
  3.533157e+000 
  3.478592e+000 
  3.427397e+000 
  3.380256e+000 
  3.337877e+000 
  3.300992e+000 
  3.270357e+000 
  3.246752e+000 
  3.230981e+000 
  3.223872e+000 
  3.226277e+000 
  3.239072e+000 
  3.263157e+000 
  3.299456e+000 
  3.348917e+000 
  3.412512e+000 
  3.491237e+000 
  3.586112e+000 
  3.698181e+000 
  3.828512e+000 
  3.978197e+000 
  4.148352e+000 
  4.340117e+000 
  4.554656e+000 
  1.583125e+000 
  1.421426e+000 
  1.282541e+000 
  1.165306e+000 
  1.068581e+000 
  9.912500e-001 
  9.322210e-001 
  8.904260e-001 
  8.648210e-001 
  8.543860e-001 
  8.581250e-001 
  8.750660e-001 
  9.042610e-001 
  9.447860e-001 
  9.957410e-001 
  1.056250e+000 
  1.125461e+000 
  1.202546e+000 
  1.286701e+000 
  1.377146e+000 
  1.473125e+000 
  1.573906e+000 
  1.678781e+000 
  1.787066e+000 
  1.898101e+000 
  2.011250e+000 
  2.125901e+000 
  2.241466e+000 
  2.357381e+000 
  2.473106e+000 
  2.588125e+000 
  2.701946e+000 
  2.814101e+000 
  2.924146e+000 
  3.031661e+000 
  3.136250e+000 
  3.237541e+000 
  3.335186e+000 
  3.428861e+000 
  3.518266e+000 
  3.603125e+000 
  3.683186e+000 
  3.758221e+000 
  3.828026e+000 
  3.892421e+000 
  3.951250e+000 
  4.004381e+000 
  4.051706e+000 
  4.093141e+000 
  4.128626e+000 
  4.158125e+000 
  4.181626e+000 
  4.199141e+000 
  4.210706e+000 
  4.216381e+000 
  4.216250e+000 
  4.210421e+000 
  4.199026e+000 
  4.182221e+000 
  4.160186e+000 
  4.133125e+000 
  4.101266e+000 
  4.064861e+000 
  4.024186e+000 
  3.979541e+000 
  3.931250e+000 
  3.879661e+000 
  3.825146e+000 
  3.768101e+000 
  3.708946e+000 
  3.648125e+000 
  3.586106e+000 
  3.523381e+000 
  3.460466e+000 
  3.397901e+000 
  3.336250e+000 
  3.276101e+000 
  3.218066e+000 
  3.162781e+000 
  3.110906e+000 
  3.063125e+000 
  3.020146e+000 
  2.982701e+000 
  2.951546e+000 
  2.927461e+000 
  2.911250e+000 
  2.903741e+000 
  2.905786e+000 
  2.918261e+000 
  2.942066e+000 
  2.978125e+000 
  3.027386e+000 
  3.090821e+000 
  3.169426e+000 
  3.264221e+000 
  3.376250e+000 
  3.506581e+000 
  3.656306e+000 
  3.826541e+000 
  4.018426e+000 
  4.233125e+000 
  1.463296e+000 
  1.297837e+000 
  1.155232e+000 
  1.034317e+000 
  9.339520e-001 
  8.530210e-001 
  7.904320e-001 
  7.451170e-001 
  7.160320e-001 
  7.021570e-001 
  7.024960e-001 
  7.160770e-001 
  7.419520e-001 
  7.791970e-001 
  8.269120e-001 
  8.842210e-001 
  9.502720e-001 
  1.024237e+000 
  1.105312e+000 
  1.192717e+000 
  1.285696e+000 
  1.383517e+000 
  1.485472e+000 
  1.590877e+000 
  1.699072e+000 
  1.809421e+000 
  1.921312e+000 
  2.034157e+000 
  2.147392e+000 
  2.260477e+000 
  2.372896e+000 
  2.484157e+000 
  2.593792e+000 
  2.701357e+000 
  2.806432e+000 
  2.908621e+000 
  3.007552e+000 
  3.102877e+000 
  3.194272e+000 
  3.281437e+000 
  3.364096e+000 
  3.441997e+000 
  3.514912e+000 
  3.582637e+000 
  3.644992e+000 
  3.701821e+000 
  3.752992e+000 
  3.798397e+000 
  3.837952e+000 
  3.871597e+000 
  3.899296e+000 
  3.921037e+000 
  3.936832e+000 
  3.946717e+000 
  3.950752e+000 
  3.949021e+000 
  3.941632e+000 
  3.928717e+000 
  3.910432e+000 
  3.886957e+000 
  3.858496e+000 
  3.825277e+000 
  3.787552e+000 
  3.745597e+000 
  3.699712e+000 
  3.650221e+000 
  3.597472e+000 
  3.541837e+000 
  3.483712e+000 
  3.423517e+000 
  3.361696e+000 
  3.298717e+000 
  3.235072e+000 
  3.171277e+000 
  3.107872e+000 
  3.045421e+000 
  2.984512e+000 
  2.925757e+000 
  2.869792e+000 
  2.817277e+000 
  2.768896e+000 
  2.725357e+000 
  2.687392e+000 
  2.655757e+000 
  2.631232e+000 
  2.614621e+000 
  2.606752e+000 
  2.608477e+000 
  2.620672e+000 
  2.644237e+000 
  2.680096e+000 
  2.729197e+000 
  2.792512e+000 
  2.871037e+000 
  2.965792e+000 
  3.077821e+000 
  3.208192e+000 
  3.357997e+000 
  3.528352e+000 
  3.720397e+000 
  3.935296e+000 
  1.362101e+000 
  1.192922e+000 
  1.046637e+000 
  9.220820e-001 
  8.181170e-001 
  7.336260e-001 
  6.675170e-001 
  6.187220e-001 
  5.861970e-001 
  5.689220e-001 
  5.659010e-001 
  5.761620e-001 
  5.987570e-001 
  6.327620e-001 
  6.772770e-001 
  7.314260e-001 
  7.943570e-001 
  8.652420e-001 
  9.432770e-001 
  1.027682e+000 
  1.117701e+000 
  1.212602e+000 
  1.311677e+000 
  1.414242e+000 
  1.519637e+000 
  1.627226e+000 
  1.736397e+000 
  1.846562e+000 
  1.957157e+000 
  2.067642e+000 
  2.177501e+000 
  2.286242e+000 
  2.393397e+000 
  2.498522e+000 
  2.601197e+000 
  2.701026e+000 
  2.797637e+000 
  2.890682e+000 
  2.979837e+000 
  3.064802e+000 
  3.145301e+000 
  3.221082e+000 
  3.291917e+000 
  3.357602e+000 
  3.417957e+000 
  3.472826e+000 
  3.522077e+000 
  3.565602e+000 
  3.603317e+000 
  3.635162e+000 
  3.661101e+000 
  3.681122e+000 
  3.695237e+000 
  3.703482e+000 
  3.705917e+000 
  3.702626e+000 
  3.693717e+000 
  3.679322e+000 
  3.659597e+000 
  3.634722e+000 
  3.604901e+000 
  3.570362e+000 
  3.531357e+000 
  3.488162e+000 
  3.441077e+000 
  3.390426e+000 
  3.336557e+000 
  3.279842e+000 
  3.220677e+000 
  3.159482e+000 
  3.096701e+000 
  3.032802e+000 
  2.968277e+000 
  2.903642e+000 
  2.839437e+000 
  2.776226e+000 
  2.714597e+000 
  2.655162e+000 
  2.598557e+000 
  2.545442e+000 
  2.496501e+000 
  2.452442e+000 
  2.413997e+000 
  2.381922e+000 
  2.356997e+000 
  2.340026e+000 
  2.331837e+000 
  2.333282e+000 
  2.345237e+000 
  2.368602e+000 
  2.404301e+000 
  2.453282e+000 
  2.516517e+000 
  2.595002e+000 
  2.689757e+000 
  2.801826e+000 
  2.932277e+000 
  3.082202e+000 
  3.252717e+000 
  3.444962e+000 
  3.660101e+000 
  1.278496e+000 
  1.105637e+000 
  9.557120e-001 
  8.275570e-001 
  7.200320e-001 
  6.320210e-001 
  5.624320e-001 
  5.101970e-001 
  4.742720e-001 
  4.536370e-001 
  4.472960e-001 
  4.542770e-001 
  4.736320e-001 
  5.044370e-001 
  5.457920e-001 
  5.968210e-001 
  6.566720e-001 
  7.245170e-001 
  7.995520e-001 
  8.809970e-001 
  9.680960e-001 
  1.060117e+000 
  1.156352e+000 
  1.256117e+000 
  1.358752e+000 
  1.463621e+000 
  1.570112e+000 
  1.677637e+000 
  1.785632e+000 
  1.893557e+000 
  2.000896e+000 
  2.107157e+000 
  2.211872e+000 
  2.314597e+000 
  2.414912e+000 
  2.512421e+000 
  2.606752e+000 
  2.697557e+000 
  2.784512e+000 
  2.867317e+000 
  2.945696e+000 
  3.019397e+000 
  3.088192e+000 
  3.151877e+000 
  3.210272e+000 
  3.263221e+000 
  3.310592e+000 
  3.352277e+000 
  3.388192e+000 
  3.418277e+000 
  3.442496e+000 
  3.460837e+000 
  3.473312e+000 
  3.479957e+000 
  3.480832e+000 
  3.476021e+000 
  3.465632e+000 
  3.449797e+000 
  3.428672e+000 
  3.402437e+000 
  3.371296e+000 
  3.335477e+000 
  3.295232e+000 
  3.250837e+000 
  3.202592e+000 
  3.150821e+000 
  3.095872e+000 
  3.038117e+000 
  2.977952e+000 
  2.915797e+000 
  2.852096e+000 
  2.787317e+000 
  2.721952e+000 
  2.656517e+000 
  2.591552e+000 
  2.527621e+000 
  2.465312e+000 
  2.405237e+000 
  2.348032e+000 
  2.294357e+000 
  2.244896e+000 
  2.200357e+000 
  2.161472e+000 
  2.128997e+000 
  2.103712e+000 
  2.086421e+000 
  2.077952e+000 
  2.079157e+000 
  2.090912e+000 
  2.114117e+000 
  2.149696e+000 
  2.198597e+000 
  2.261792e+000 
  2.340277e+000 
  2.435072e+000 
  2.547221e+000 
  2.677792e+000 
  2.827877e+000 
  2.998592e+000 
  3.191077e+000 
  3.406496e+000 
  1.211461e+000 
  1.034962e+000 
  8.814370e-001 
  7.497220e-001 
  6.386770e-001 
  5.471860e-001 
  4.741570e-001 
  4.185220e-001 
  3.792370e-001 
  3.552820e-001 
  3.456610e-001 
  3.494020e-001 
  3.655570e-001 
  3.932020e-001 
  4.314370e-001 
  4.793860e-001 
  5.361970e-001 
  6.010420e-001 
  6.731170e-001 
  7.516420e-001 
  8.358610e-001 
  9.250420e-001 
  1.018477e+000 
  1.115482e+000 
  1.215397e+000 
  1.317586e+000 
  1.421437e+000 
  1.526362e+000 
  1.631797e+000 
  1.737202e+000 
  1.842061e+000 
  1.945882e+000 
  2.048197e+000 
  2.148562e+000 
  2.246557e+000 
  2.341786e+000 
  2.433877e+000 
  2.522482e+000 
  2.607277e+000 
  2.687962e+000 
  2.764261e+000 
  2.835922e+000 
  2.902717e+000 
  2.964442e+000 
  3.020917e+000 
  3.071986e+000 
  3.117517e+000 
  3.157402e+000 
  3.191557e+000 
  3.219922e+000 
  3.242461e+000 
  3.259162e+000 
  3.270037e+000 
  3.275122e+000 
  3.274477e+000 
  3.268186e+000 
  3.256357e+000 
  3.239122e+000 
  3.216637e+000 
  3.189082e+000 
  3.156661e+000 
  3.119602e+000 
  3.078157e+000 
  3.032602e+000 
  2.983237e+000 
  2.930386e+000 
  2.874397e+000 
  2.815642e+000 
  2.754517e+000 
  2.691442e+000 
  2.626861e+000 
  2.561242e+000 
  2.495077e+000 
  2.428882e+000 
  2.363197e+000 
  2.298586e+000 
  2.235637e+000 
  2.174962e+000 
  2.117197e+000 
  2.063002e+000 
  2.013061e+000 
  1.968082e+000 
  1.928797e+000 
  1.895962e+000 
  1.870357e+000 
  1.852786e+000 
  1.844077e+000 
  1.845082e+000 
  1.856677e+000 
  1.879762e+000 
  1.915261e+000 
  1.964122e+000 
  2.027317e+000 
  2.105842e+000 
  2.200717e+000 
  2.312986e+000 
  2.443717e+000 
  2.594002e+000 
  2.764957e+000 
  2.957722e+000 
  3.173461e+000 
  1.160000e+000 
  9.799010e-001 
  8.228160e-001 
  6.875810e-001 
  5.730560e-001 
  4.781250e-001 
  4.016960e-001 
  3.427010e-001 
  3.000960e-001 
  2.728610e-001 
  2.600000e-001 
  2.605410e-001 
  2.735360e-001 
  2.980610e-001 
  3.332160e-001 
  3.781250e-001 
  4.319360e-001 
  4.938210e-001 
  5.629760e-001 
  6.386210e-001 
  7.200000e-001 
  8.063810e-001 
  8.970560e-001 
  9.913410e-001 
  1.088576e+000 
  1.188125e+000 
  1.289376e+000 
  1.391741e+000 
  1.494656e+000 
  1.597581e+000 
  1.700000e+000 
  1.801421e+000 
  1.901376e+000 
  1.999421e+000 
  2.095136e+000 
  2.188125e+000 
  2.278016e+000 
  2.364461e+000 
  2.447136e+000 
  2.525741e+000 
  2.600000e+000 
  2.669661e+000 
  2.734496e+000 
  2.794301e+000 
  2.848896e+000 
  2.898125e+000 
  2.941856e+000 
  2.979981e+000 
  3.012416e+000 
  3.039101e+000 
  3.060000e+000 
  3.075101e+000 
  3.084416e+000 
  3.087981e+000 
  3.085856e+000 
  3.078125e+000 
  3.064896e+000 
  3.046301e+000 
  3.022496e+000 
  2.993661e+000 
  2.960000e+000 
  2.921741e+000 
  2.879136e+000 
  2.832461e+000 
  2.782016e+000 
  2.728125e+000 
  2.671136e+000 
  2.611421e+000 
  2.549376e+000 
  2.485421e+000 
  2.420000e+000 
  2.353581e+000 
  2.286656e+000 
  2.219741e+000 
  2.153376e+000 
  2.088125e+000 
  2.024576e+000 
  1.963341e+000 
  1.905056e+000 
  1.850381e+000 
  1.800000e+000 
  1.754621e+000 
  1.714976e+000 
  1.681821e+000 
  1.655936e+000 
  1.638125e+000 
  1.629216e+000 
  1.630061e+000 
  1.641536e+000 
  1.664541e+000 
  1.700000e+000 
  1.748861e+000 
  1.812096e+000 
  1.890701e+000 
  1.985696e+000 
  2.098125e+000 
  2.229056e+000 
  2.379581e+000 
  2.550816e+000 
  2.743901e+000 
  2.960000e+000 
  1.123141e+000 
  9.394820e-001 
  7.788770e-001 
  6.401620e-001 
  5.221970e-001 
  4.238660e-001 
  3.440770e-001 
  2.817620e-001 
  2.358770e-001 
  2.054020e-001 
  1.893410e-001 
  1.867220e-001 
  1.965970e-001 
  2.180420e-001 
  2.501570e-001 
  2.920660e-001 
  3.429170e-001 
  4.018820e-001 
  4.681570e-001 
  5.409620e-001 
  6.195410e-001 
  7.031620e-001 
  7.911170e-001 
  8.827220e-001 
  9.773170e-001 
  1.074266e+000 
  1.172957e+000 
  1.272802e+000 
  1.373237e+000 
  1.473722e+000 
  1.573741e+000 
  1.672802e+000 
  1.770437e+000 
  1.866202e+000 
  1.959677e+000 
  2.050466e+000 
  2.138197e+000 
  2.222522e+000 
  2.303117e+000 
  2.379682e+000 
  2.451941e+000 
  2.519642e+000 
  2.582557e+000 
  2.640482e+000 
  2.693237e+000 
  2.740666e+000 
  2.782637e+000 
  2.819042e+000 
  2.849797e+000 
  2.874842e+000 
  2.894141e+000 
  2.907682e+000 
  2.915477e+000 
  2.917562e+000 
  2.913997e+000 
  2.904866e+000 
  2.890277e+000 
  2.870362e+000 
  2.845277e+000 
  2.815202e+000 
  2.780341e+000 
  2.740922e+000 
  2.697197e+000 
  2.649442e+000 
  2.597957e+000 
  2.543066e+000 
  2.485117e+000 
  2.424482e+000 
  2.361557e+000 
  2.296762e+000 
  2.230541e+000 
  2.163362e+000 
  2.095717e+000 
  2.028122e+000 
  1.961117e+000 
  1.895266e+000 
  1.831157e+000 
  1.769402e+000 
  1.710637e+000 
  1.655522e+000 
  1.604741e+000 
  1.559002e+000 
  1.519037e+000 
  1.485602e+000 
  1.459477e+000 
  1.441466e+000 
  1.432397e+000 
  1.433122e+000 
  1.444517e+000 
  1.467482e+000 
  1.502941e+000 
  1.551842e+000 
  1.615157e+000 
  1.693882e+000 
  1.789037e+000 
  1.901666e+000 
  2.032837e+000 
  2.183642e+000 
  2.355197e+000 
  2.548642e+000 
  2.765141e+000 
  1.099936e+000 
  9.127570e-001 
  7.486720e-001 
  6.065170e-001 
  4.851520e-001 
  3.834610e-001 
  3.003520e-001 
  2.347570e-001 
  1.856320e-001 
  1.519570e-001 
  1.327360e-001 
  1.269970e-001 
  1.337920e-001 
  1.521970e-001 
  1.813120e-001 
  2.202610e-001 
  2.681920e-001 
  3.242770e-001 
  3.877120e-001 
  4.577170e-001 
  5.335360e-001 
  6.144370e-001 
  6.997120e-001 
  7.886770e-001 
  8.806720e-001 
  9.750610e-001 
  1.071232e+000 
  1.168597e+000 
  1.266592e+000 
  1.364677e+000 
  1.462336e+000 
  1.559077e+000 
  1.654432e+000 
  1.747957e+000 
  1.839232e+000 
  1.927861e+000 
  2.013472e+000 
  2.095717e+000 
  2.174272e+000 
  2.248837e+000 
  2.319136e+000 
  2.384917e+000 
  2.445952e+000 
  2.502037e+000 
  2.552992e+000 
  2.598661e+000 
  2.638912e+000 
  2.673637e+000 
  2.702752e+000 
  2.726197e+000 
  2.743936e+000 
  2.755957e+000 
  2.762272e+000 
  2.762917e+000 
  2.757952e+000 
  2.747461e+000 
  2.731552e+000 
  2.710357e+000 
  2.684032e+000 
  2.652757e+000 
  2.616736e+000 
  2.576197e+000 
  2.531392e+000 
  2.482597e+000 
  2.430112e+000 
  2.374261e+000 
  2.315392e+000 
  2.253877e+000 
  2.190112e+000 
  2.124517e+000 
  2.057536e+000 
  1.989637e+000 
  1.921312e+000 
  1.853077e+000 
  1.785472e+000 
  1.719061e+000 
  1.654432e+000 
  1.592197e+000 
  1.532992e+000 
  1.477477e+000 
  1.426336e+000 
  1.380277e+000 
  1.340032e+000 
  1.306357e+000 
  1.280032e+000 
  1.261861e+000 
  1.252672e+000 
  1.253317e+000 
  1.264672e+000 
  1.287637e+000 
  1.323136e+000 
  1.372117e+000 
  1.435552e+000 
  1.514437e+000 
  1.609792e+000 
  1.722661e+000 
  1.854112e+000 
  2.005237e+000 
  2.177152e+000 
  2.370997e+000 
  2.587936e+000 
  1.089461e+000 
  8.988020e-001 
  7.312770e-001 
  5.857220e-001 
  4.609970e-001 
  3.559860e-001 
  2.695970e-001 
  2.007620e-001 
  1.484370e-001 
  1.116020e-001 
  8.926100e-002 
  8.044200e-002 
  8.419700e-002 
  9.960200e-002 
  1.257570e-001 
  1.617860e-001 
  2.068370e-001 
  2.600820e-001 
  3.207170e-001 
  3.879620e-001 
  4.610610e-001 
  5.392820e-001 
  6.219170e-001 
  7.082820e-001 
  7.977170e-001 
  8.895860e-001 
  9.832770e-001 
  1.078202e+000 
  1.173797e+000 
  1.269522e+000 
  1.364861e+000 
  1.459322e+000 
  1.552437e+000 
  1.643762e+000 
  1.732877e+000 
  1.819386e+000 
  1.902917e+000 
  1.983122e+000 
  2.059677e+000 
  2.132282e+000 
  2.200661e+000 
  2.264562e+000 
  2.323757e+000 
  2.378042e+000 
  2.427237e+000 
  2.471186e+000 
  2.509757e+000 
  2.542842e+000 
  2.570357e+000 
  2.592242e+000 
  2.608461e+000 
  2.619002e+000 
  2.623877e+000 
  2.623122e+000 
  2.616797e+000 
  2.604986e+000 
  2.587797e+000 
  2.565362e+000 
  2.537837e+000 
  2.505402e+000 
  2.468261e+000 
  2.426642e+000 
  2.380797e+000 
  2.331002e+000 
  2.277557e+000 
  2.220786e+000 
  2.161037e+000 
  2.098682e+000 
  2.034117e+000 
  1.967762e+000 
  1.900061e+000 
  1.831482e+000 
  1.762517e+000 
  1.693682e+000 
  1.625517e+000 
  1.558586e+000 
  1.493477e+000 
  1.430802e+000 
  1.371197e+000 
  1.315322e+000 
  1.263861e+000 
  1.217522e+000 
  1.177037e+000 
  1.143162e+000 
  1.116677e+000 
  1.098386e+000 
  1.089117e+000 
  1.089722e+000 
  1.101077e+000 
  1.124082e+000 
  1.159661e+000 
  1.208762e+000 
  1.272357e+000 
  1.351442e+000 
  1.447037e+000 
  1.560186e+000 
  1.691957e+000 
  1.843442e+000 
  2.015757e+000 
  2.210042e+000 
  2.427461e+000 
  1.090816e+000 
  8.967170e-001 
  7.257920e-001 
  5.768770e-001 
  4.488320e-001 
  3.405410e-001 
  2.509120e-001 
  1.788770e-001 
  1.233920e-001 
  8.343700e-002 
  5.801600e-002 
  4.615700e-002 
  4.691200e-002 
  5.935700e-002 
  8.259200e-002 
  1.157410e-001 
  1.579520e-001 
  2.083970e-001 
  2.662720e-001 
  3.307970e-001 
  4.012160e-001 
  4.767970e-001 
  5.568320e-001 
  6.406370e-001 
  7.275520e-001 
  8.169410e-001 
  9.081920e-001 
  1.000717e+000 
  1.093952e+000 
  1.187357e+000 
  1.280416e+000 
  1.372637e+000 
  1.463552e+000 
  1.552717e+000 
  1.639712e+000 
  1.724141e+000 
  1.805632e+000 
  1.883837e+000 
  1.958432e+000 
  2.029117e+000 
  2.095616e+000 
  2.157677e+000 
  2.215072e+000 
  2.267597e+000 
  2.315072e+000 
  2.357341e+000 
  2.394272e+000 
  2.425757e+000 
  2.451712e+000 
  2.472077e+000 
  2.486816e+000 
  2.495917e+000 
  2.499392e+000 
  2.497277e+000 
  2.489632e+000 
  2.476541e+000 
  2.458112e+000 
  2.434477e+000 
  2.405792e+000 
  2.372237e+000 
  2.334016e+000 
  2.291357e+000 
  2.244512e+000 
  2.193757e+000 
  2.139392e+000 
  2.081741e+000 
  2.021152e+000 
  1.957997e+000 
  1.892672e+000 
  1.825597e+000 
  1.757216e+000 
  1.687997e+000 
  1.618432e+000 
  1.549037e+000 
  1.480352e+000 
  1.412941e+000 
  1.347392e+000 
  1.284317e+000 
  1.224352e+000 
  1.168157e+000 
  1.116416e+000 
  1.069837e+000 
  1.029152e+000 
  9.951170e-001 
  9.685120e-001 
  9.501410e-001 
  9.408320e-001 
  9.414370e-001 
  9.528320e-001 
  9.759170e-001 
  1.011616e+000 
  1.060877e+000 
  1.124672e+000 
  1.203997e+000 
  1.299872e+000 
  1.413341e+000 
  1.545472e+000 
  1.697357e+000 
  1.870112e+000 
  2.064877e+000 
  2.282816e+000 
  1.103125e+000 
  9.056260e-001 
  7.313410e-001 
  5.791060e-001 
  4.477810e-001 
  3.362500e-001 
  2.434210e-001 
  1.682260e-001 
  1.096210e-001 
  6.658600e-002 
  3.812500e-002 
  2.326600e-002 
  2.106100e-002 
  3.058600e-002 
  5.094100e-002 
  8.125000e-002 
  1.206610e-001 
  1.683460e-001 
  2.235010e-001 
  2.853460e-001 
  3.531250e-001 
  4.261060e-001 
  5.035810e-001 
  5.848660e-001 
  6.693010e-001 
  7.562500e-001 
  8.451010e-001 
  9.352660e-001 
  1.026181e+000 
  1.117306e+000 
  1.208125e+000 
  1.298146e+000 
  1.386901e+000 
  1.473946e+000 
  1.558861e+000 
  1.641250e+000 
  1.720741e+000 
  1.796986e+000 
  1.869661e+000 
  1.938466e+000 
  2.003125e+000 
  2.063386e+000 
  2.119021e+000 
  2.169826e+000 
  2.215621e+000 
  2.256250e+000 
  2.291581e+000 
  2.321506e+000 
  2.345941e+000 
  2.364826e+000 
  2.378125e+000 
  2.385826e+000 
  2.387941e+000 
  2.384506e+000 
  2.375581e+000 
  2.361250e+000 
  2.341621e+000 
  2.316826e+000 
  2.287021e+000 
  2.252386e+000 
  2.213125e+000 
  2.169466e+000 
  2.121661e+000 
  2.069986e+000 
  2.014741e+000 
  1.956250e+000 
  1.894861e+000 
  1.830946e+000 
  1.764901e+000 
  1.697146e+000 
  1.628125e+000 
  1.558306e+000 
  1.488181e+000 
  1.418266e+000 
  1.349101e+000 
  1.281250e+000 
  1.215301e+000 
  1.151866e+000 
  1.091581e+000 
  1.035106e+000 
  9.831250e-001 
  9.363460e-001 
  8.955010e-001 
  8.613460e-001 
  8.346610e-001 
  8.162500e-001 
  8.069410e-001 
  8.075860e-001 
  8.190610e-001 
  8.422660e-001 
  8.781250e-001 
  9.275860e-001 
  9.916210e-001 
  1.071226e+000 
  1.167421e+000 
  1.281250e+000 
  1.413781e+000 
  1.566106e+000 
  1.739341e+000 
  1.934626e+000 
  2.153125e+000 
  1.125536e+000 
  9.246770e-001 
  7.470720e-001 
  5.915570e-001 
  4.569920e-001 
  3.422610e-001 
  2.462720e-001 
  1.679570e-001 
  1.062720e-001 
  6.019700e-002 
  2.873600e-002 
  1.091700e-002 
  5.792000e-003 
  1.243700e-002 
  2.995200e-002 
  5.746100e-002 
  9.411200e-002 
  1.390770e-001 
  1.915520e-001 
  2.507570e-001 
  3.159360e-001 
  3.863570e-001 
  4.613120e-001 
  5.401170e-001 
  6.221120e-001 
  7.066610e-001 
  7.931520e-001 
  8.809970e-001 
  9.696320e-001 
  1.058517e+000 
  1.147136e+000 
  1.234997e+000 
  1.321632e+000 
  1.406597e+000 